
                                 *****************
                                 * O   R   C   A *
                                 *****************

                                            #,                                       
                                            ###                                      
                                            ####                                     
                                            #####                                    
                                            ######                                   
                                           ########,                                 
                                     ,,################,,,,,                         
                               ,,#################################,,                 
                          ,,##########################################,,             
                       ,#########################################, ''#####,          
                    ,#############################################,,   '####,        
                  ,##################################################,,,,####,       
                ,###########''''           ''''###############################       
              ,#####''   ,,,,##########,,,,          '''####'''          '####       
            ,##' ,,,,###########################,,,                        '##       
           ' ,,###''''                  '''############,,,                           
         ,,##''                                '''############,,,,        ,,,,,,###''
      ,#''                                            '''#######################'''  
     '                                                          ''''####''''         
             ,#######,   #######,   ,#######,      ##                                
            ,#'     '#,  ##    ##  ,#'     '#,    #''#        ######   ,####,        
            ##       ##  ##   ,#'  ##            #'  '#       #        #'  '#        
            ##       ##  #######   ##           ,######,      #####,   #    #        
            '#,     ,#'  ##    ##  '#,     ,#' ,#      #,         ##   #,  ,#        
             '#######'   ##     ##  '#######'  #'      '#     #####' # '####'        



                  #######################################################
                  #                        -***-                        #
                  #          Department of theory and spectroscopy      #
                  #    Directorship and core code : Frank Neese         #
                  #        Max Planck Institute fuer Kohlenforschung    #
                  #                Kaiser Wilhelm Platz 1               #
                  #                 D-45470 Muelheim/Ruhr               #
                  #                      Germany                        #
                  #                                                     #
                  #                  All rights reserved                #
                  #                        -***-                        #
                  #######################################################


                         Program Version 5.0.4 -  RELEASE  -


 With contributions from (in alphabetic order):
   Daniel Aravena         : Magnetic Suceptibility
   Michael Atanasov       : Ab Initio Ligand Field Theory (pilot matlab implementation)
   Alexander A. Auer      : GIAO ZORA, VPT2 properties, NMR spectrum
   Ute Becker             : Parallelization
   Giovanni Bistoni       : ED, misc. LED, open-shell LED, HFLD
   Martin Brehm           : Molecular dynamics
   Dmytro Bykov           : SCF Hessian
   Vijay G. Chilkuri      : MRCI spin determinant printing, contributions to CSF-ICE
   Dipayan Datta          : RHF DLPNO-CCSD density
   Achintya Kumar Dutta   : EOM-CC, STEOM-CC
   Dmitry Ganyushin       : Spin-Orbit,Spin-Spin,Magnetic field MRCI
   Miquel Garcia          : C-PCM and meta-GGA Hessian, CC/C-PCM, Gaussian charge scheme
   Yang Guo               : DLPNO-NEVPT2, F12-NEVPT2, CIM, IAO-localization
   Andreas Hansen         : Spin unrestricted coupled pair/coupled cluster methods
   Benjamin Helmich-Paris : MC-RPA, TRAH-SCF, COSX integrals
   Lee Huntington         : MR-EOM, pCC
   Robert Izsak           : Overlap fitted RIJCOSX, COSX-SCS-MP3, EOM
   Marcus Kettner         : VPT2
   Christian Kollmar      : KDIIS, OOCD, Brueckner-CCSD(T), CCSD density, CASPT2, CASPT2-K
   Simone Kossmann        : Meta GGA functionals, TD-DFT gradient, OOMP2, MP2 Hessian
   Martin Krupicka        : Initial AUTO-CI
   Lucas Lang             : DCDCAS
   Marvin Lechner         : AUTO-CI (C++ implementation), FIC-MRCC
   Dagmar Lenk            : GEPOL surface, SMD
   Dimitrios Liakos       : Extrapolation schemes; Compound Job, initial MDCI parallelization
   Dimitrios Manganas     : Further ROCIS development; embedding schemes
   Dimitrios Pantazis     : SARC Basis sets
   Anastasios Papadopoulos: AUTO-CI, single reference methods and gradients
   Taras Petrenko         : DFT Hessian,TD-DFT gradient, ASA, ECA, R-Raman, ABS, FL, XAS/XES, NRVS
   Peter Pinski           : DLPNO-MP2, DLPNO-MP2 Gradient
   Christoph Reimann      : Effective Core Potentials
   Marius Retegan         : Local ZFS, SOC
   Christoph Riplinger    : Optimizer, TS searches, QM/MM, DLPNO-CCSD(T), (RO)-DLPNO pert. Triples
   Tobias Risthaus        : Range-separated hybrids, TD-DFT gradient, RPA, STAB
   Michael Roemelt        : Original ROCIS implementation
   Masaaki Saitow         : Open-shell DLPNO-CCSD energy and density
   Barbara Sandhoefer     : DKH picture change effects
   Avijit Sen             : IP-ROCIS
   Kantharuban Sivalingam : CASSCF convergence, NEVPT2, FIC-MRCI
   Bernardo de Souza      : ESD, SOC TD-DFT
   Georgi Stoychev        : AutoAux, RI-MP2 NMR, DLPNO-MP2 response
   Willem Van den Heuvel  : Paramagnetic NMR
   Boris Wezisla          : Elementary symmetry handling
   Frank Wennmohs         : Technical directorship


 We gratefully acknowledge several colleagues who have allowed us to
 interface, adapt or use parts of their codes:
   Stefan Grimme, W. Hujo, H. Kruse, P. Pracht,  : VdW corrections, initial TS optimization,
                  C. Bannwarth, S. Ehlert          DFT functionals, gCP, sTDA/sTD-DF
   Ed Valeev, F. Pavosevic, A. Kumar             : LibInt (2-el integral package), F12 methods
   Garnet Chan, S. Sharma, J. Yang, R. Olivares  : DMRG
   Ulf Ekstrom                                   : XCFun DFT Library
   Mihaly Kallay                                 : mrcc  (arbitrary order and MRCC methods)
   Jiri Pittner, Ondrej Demel                    : Mk-CCSD
   Frank Weinhold                                : gennbo (NPA and NBO analysis)
   Christopher J. Cramer and Donald G. Truhlar   : smd solvation model
   Lars Goerigk                                  : TD-DFT with DH, B97 family of functionals
   V. Asgeirsson, H. Jonsson                     : NEB implementation
   FAccTs GmbH                                   : IRC, NEB, NEB-TS, DLPNO-Multilevel, CI-OPT
                                                   MM, QMMM, 2- and 3-layer-ONIOM, Crystal-QMMM,
                                                   LR-CPCM, SF, NACMEs, symmetry and pop. for TD-DFT,
                                                   nearIR, NL-DFT gradient (VV10), updates on ESD,
                                                   ML-optimized integration grids
   S Lehtola, MJT Oliveira, MAL Marques          : LibXC Library
   Liviu Ungur et al                             : ANISO software


 Your calculation uses the libint2 library for the computation of 2-el integrals
 For citations please refer to: http://libint.valeyev.net

 Your ORCA version has been built with support for libXC version: 5.1.0
 For citations please refer to: https://tddft.org/programs/libxc/

 This ORCA versions uses:
   CBLAS   interface :  Fast vector & matrix operations
   LAPACKE interface :  Fast linear algebra routines
   SCALAPACK package :  Parallel linear algebra routines
   Shared memory     :  Shared parallel matrices
   BLAS/LAPACK       :  OpenBLAS 0.3.15  USE64BITINT DYNAMIC_ARCH NO_AFFINITY Zen SINGLE_THREADED
        Core in use  :  Zen
   Copyright (c) 2011-2014, The OpenBLAS Project




***************************************
The coordinates will be read from file: co-b.xyz
***************************************


================================================================================

----- Orbital basis set information -----
Your calculation utilizes the basis: STO-3G
   H-Ne       : W. J. Hehre, R. F. Stewart and J. A. Pople, J. Chem. Phys. 2657 (1969).
   Na-Ar      : W. J. Hehre, R. Ditchfield, R. F. Stewart and J. A. Pople, J. Chem. Phys. 2769 (1970).
   K,Ca,Ga-Kr : W. J. Pietro, B. A. Levy, W. J. Hehre and R. F. Stewart, J. Am. Chem. Soc. 19, 2225 (1980).
   Sc-Zn,Y-Cd : W. J. Pietro and W. J. Hehre, J. Comp. Chem. 4, 241 (1983).

================================================================================
                                        WARNINGS
                       Please study these warnings very carefully!
================================================================================

WARNING: Old DensityContainer found on disk!
         Will remove this file - 
         If you want to keep old densities, please start your calculation with a different basename. 


INFO   : the flag for use of the SHARK integral package has been found!

================================================================================
                                       INPUT FILE
================================================================================
NAME = co-b.inp
|  1> ! HF STO-3G LARGEPRINT
|  2> 
|  3> %output
|  4> 	Print[ P_Basis ] 2
|  5> 	Print[ P_MOs ] 1
|  6> end
|  7> 
|  8> * xyzfile 0 1 co-b.xyz
|  9> 
| 10>                          ****END OF INPUT****
================================================================================

                       ****************************
                       * Single Point Calculation *
                       ****************************

---------------------------------
CARTESIAN COORDINATES (ANGSTROEM)
---------------------------------
  C      0.000000    0.000000    0.000000
  O      0.000000    0.000000    1.128212

----------------------------
CARTESIAN COORDINATES (A.U.)
----------------------------
  NO LB      ZA    FRAG     MASS         X           Y           Z
   0 C     6.0000    0    12.011    0.000000    0.000000    0.000000
   1 O     8.0000    0    15.999    0.000000    0.000000    2.132011

--------------------------------
INTERNAL COORDINATES (ANGSTROEM)
--------------------------------
 C      0   0   0     0.000000000000     0.00000000     0.00000000
 O      1   0   0     1.128211760000     0.00000000     0.00000000

---------------------------
INTERNAL COORDINATES (A.U.)
---------------------------
 C      0   0   0     0.000000000000     0.00000000     0.00000000
 O      1   0   0     2.132011247469     0.00000000     0.00000000

---------------------
BASIS SET INFORMATION
---------------------
There are 2 groups of distinct atoms

 Group   1 Type C   : 6s3p contracted to 2s1p pattern {33/3}
 Group   2 Type O   : 6s3p contracted to 2s1p pattern {33/3}

Atom   0C    basis set group =>   1
Atom   1O    basis set group =>   2

-------------------------
BASIS SET IN INPUT FORMAT
-------------------------

 # Basis set for element : C 
 NewGTO C 
 S 3 
   1      71.6168370000      0.1543289700
   2      13.0450960000      0.5353281400
   3       3.5305122000      0.4446345400
 S 3 
   1       2.9412494000     -0.0999672301
   2       0.6834831000      0.3995128303
   3       0.2222899000      0.7001154705
 P 3 
   1       2.9412494000      0.1559162721
   2       0.6834831000      0.6076837282
   3       0.2222899000      0.3919573953
  end;

 # Basis set for element : O 
 NewGTO O 
 S 3 
   1     130.7093200000      0.1543289687
   2      23.8088610000      0.5353281356
   3       6.4436083000      0.4446345363
 S 3 
   1       5.0331513000     -0.0999672287
   2       1.1695961000      0.3995128246
   3       0.3803890000      0.7001154606
 P 3 
   1       5.0331513000      0.1559162685
   2       1.1695961000      0.6076837141
   3       0.3803890000      0.3919573862
  end;


Checking for AutoStart:
The File: co-b.gbw exists
Trying to determine its content:
     ... Fine, the file contains calculation information
     ... Fine, the calculation information was read
     ... Fine, the file contains a basis set
     ... Fine, the basis set was read
     ... Fine, the file contains a geometry
     ... Fine, the geometry was read
     ... Fine, the file contains a set of orbitals
     ... Fine, the orbitals can be read
     => possible old guess file was deleted
     => GBW file was renamed to GES file
     => GES file is set as startup file
     => Guess is set to MORead
     ... now leaving AutoStart

------------------------------------------------------------------------------
                           ORCA GTO INTEGRAL CALCULATION
------------------------------------------------------------------------------
------------------------------------------------------------------------------
                   ___                                                        
                  /   \      - P O W E R E D   B Y -                         
                 /     \                                                     
                 |  |  |   _    _      __       _____    __    __             
                 |  |  |  | |  | |    /  \     |  _  \  |  |  /  |          
                  \  \/   | |  | |   /    \    | | | |  |  | /  /          
                 / \  \   | |__| |  /  /\  \   | |_| |  |  |/  /          
                |  |  |   |  __  | /  /__\  \  |    /   |      \           
                |  |  |   | |  | | |   __   |  |    \   |  |\   \          
                \     /   | |  | | |  |  |  |  | |\  \  |  | \   \       
                 \___/    |_|  |_| |__|  |__|  |_| \__\ |__|  \__/        
                                                                              
                      - O R C A' S   B I G   F R I E N D -                    
                                      &                                       
                       - I N T E G R A L  F E E D E R -                       
                                                                              
 v1 FN, 2020, v2 2021                                                         
------------------------------------------------------------------------------


Reading SHARK input file co-b.SHARKINP.tmp ... SHARK General Contraction Test:  Segmented basis detected
   -> Pre-screening matrix *NOT* found on disk - recalculating with NShells=6
   -> Leaving CheckPreScreeningMatrix
ok
----------------------
SHARK INTEGRAL PACKAGE
----------------------

Number of atoms                             ...      2
Number of basis functions                   ...     10
Number of shells                            ...      6
Maximum angular momentum                    ...      1
Integral batch strategy                     ... SHARK/LIBINT Hybrid
RI-J (if used) integral strategy            ... SPLIT-RIJ (Revised 2003 algorithm where possible)
Printlevel                                  ...      2
Contraction scheme used                     ... SEGMENTED contraction
Coulomb Range Separation                    ... NOT USED
Exchange Range Separation                   ... NOT USED
Finite Nucleus Model                        ... NOT USED
Auxiliary Coulomb fitting basis             ... NOT available
Auxiliary J/K fitting basis                 ... NOT available
Auxiliary Correlation fitting basis         ... NOT available
Auxiliary 'external' fitting basis          ... NOT available
Integral threshold                          ...     1.000000e-10
Primitive cut-off                           ...     1.000000e-11
Primitive pair pre-selection threshold      ...     1.000000e-11

Calculating pre-screening integrals         ... done (  0.0 sec) Dimension = 6
Organizing shell pair data                  ... done (  0.0 sec)
Shell pair information
Total number of shell pairs                 ...        21
Shell pairs after pre-screening             ...        21
Total number of primitive shell pairs       ...       189
Primitive shell pairs kept                  ...       185
          la=0 lb=0:     10 shell pairs
          la=1 lb=0:      8 shell pairs
          la=1 lb=1:      3 shell pairs

Calculating one electron integrals          ... done (  0.0 sec)
Calculating Nuclear repulsion               ... done (  0.0 sec) ENN=     22.513952521112 Eh

SHARK setup successfully completed in   0.0 seconds

Maximum memory used throughout the entire GTOINT-calculation: 3.9 MB
-------------------------------------------------------------------------------
                                 ORCA SCF
-------------------------------------------------------------------------------

------------
SCF SETTINGS
------------
Hamiltonian:
 Ab initio Hamiltonian  Method          .... Hartree-Fock(GTOs)


General Settings:
 Integral files         IntName         .... co-b
 Hartree-Fock type      HFTyp           .... RHF
 Total Charge           Charge          ....    0
 Multiplicity           Mult            ....    1
 Number of Electrons    NEL             ....   14
 Basis Dimension        Dim             ....   10
 Nuclear Repulsion      ENuc            ....     22.5139525211 Eh

Convergence Acceleration:
 DIIS                   CNVDIIS         .... on
   Start iteration      DIISMaxIt       ....    12
   Startup error        DIISStart       ....  0.200000
   # of expansion vecs  DIISMaxEq       ....     5
   Bias factor          DIISBfac        ....   1.050
   Max. coefficient     DIISMaxC        ....  10.000
 Trust-Rad. Augm. Hess. CNVTRAH         .... auto
   Auto Start mean grad. ratio tolernc. ....  1.125000
   Auto Start start iteration           ....     1
   Auto Start num. interpolation iter.  ....    10
   Max. Number of Micro iterations      ....    16
   Max. Number of Macro iterations      .... Maxiter - #DIIS iter
   Number of Davidson start vectors     ....     2
   Converg. threshold I  (grad. norm)   ....   5.000e-05
   Converg. threshold II (energy diff.) ....   1.000e-06
   Grad. Scal. Fac. for Micro threshold ....   0.100
   Minimum threshold for Micro iter.    ....   0.010
   NR start threshold (gradient norm)   ....   0.001
   Initial trust radius                 ....   0.400
   Minimum AH scaling param. (alpha)    ....   1.000
   Maximum AH scaling param. (alpha)    .... 1000.000
   Orbital update algorithm             .... Taylor
   White noise on init. David. guess    .... on
   Maximum white noise                  ....   0.010
   Quad. conv. algorithm                .... NR
 SOSCF                  CNVSOSCF        .... on
   Start iteration      SOSCFMaxIt      ....   150
   Startup grad/error   SOSCFStart      ....  0.003300
 Level Shifting         CNVShift        .... on
   Level shift para.    LevelShift      ....    0.2500
   Turn off err/grad.   ShiftErr        ....    0.0010
 Zerner damping         CNVZerner       .... off
 Static damping         CNVDamp         .... on
   Fraction old density DampFac         ....    0.7000
   Max. Damping (<1)    DampMax         ....    0.9800
   Min. Damping (>=0)   DampMin         ....    0.0000
   Turn off err/grad.   DampErr         ....    0.1000
 Fernandez-Rico         CNVRico         .... off

SCF Procedure:
 Maximum # iterations   MaxIter         ....   125
 SCF integral mode      SCFMode         .... Direct
   Integral package                     .... SHARK and LIBINT hybrid scheme
 Reset frequency        DirectResetFreq ....    20
 Integral Threshold     Thresh          ....  1.000e-10 Eh
 Primitive CutOff       TCut            ....  1.000e-11 Eh

Convergence Tolerance:
 Convergence Check Mode ConvCheckMode   .... Total+1el-Energy
 Convergence forced     ConvForced      .... 0
 Energy Change          TolE            ....  1.000e-06 Eh
 1-El. energy change                    ....  1.000e-03 Eh
 Orbital Gradient       TolG            ....  5.000e-05
 Orbital Rotation angle TolX            ....  5.000e-05
 DIIS Error             TolErr          ....  1.000e-06


Diagonalization of the overlap matrix:
Smallest eigenvalue                        ... 2.033e-01
Time for diagonalization                   ...    0.000 sec
Threshold for overlap eigenvalues          ... 1.000e-08
Number of eigenvalues below threshold      ... 0
Time for construction of square roots      ...    0.000 sec
Total time needed                          ...    0.000 sec

SHARK General Contraction Test:  Segmented basis detected
   -> Pre-screening matrix found on disk - Trying to read with NShells=6
   -> Passing Pre-screening matrix on to SHARK ...ok
   -> Leaving CheckPreScreeningMatrix
----------------------
SHARK INTEGRAL PACKAGE
----------------------

Number of atoms                             ...      2
Number of basis functions                   ...     10
Number of shells                            ...      6
Maximum angular momentum                    ...      1
Integral batch strategy                     ... SHARK/LIBINT Hybrid
RI-J (if used) integral strategy            ... SPLIT-RIJ (Revised 2003 algorithm where possible)
Printlevel                                  ...      2
Contraction scheme used                     ... SEGMENTED contraction
Coulomb Range Separation                    ... NOT USED
Exchange Range Separation                   ... NOT USED
Finite Nucleus Model                        ... NOT USED
Auxiliary Coulomb fitting basis             ... NOT available
Auxiliary J/K fitting basis                 ... NOT available
Auxiliary Correlation fitting basis         ... NOT available
Auxiliary 'external' fitting basis          ... NOT available
Integral threshold                          ...     1.000000e-10
Primitive cut-off                           ...     1.000000e-11
Primitive pair pre-selection threshold      ...     1.000000e-11

---------------------
INITIAL GUESS: MOREAD
---------------------
Guess MOs are being read from file: co-b.ges
Input Geometry matches current geometry (good)
Input basis set matches current basis set (good)
MOs were renormalized
MOs were reorthogonalized (Cholesky)
                      ------------------
                      INITIAL GUESS DONE (   0.0 sec)
                      ------------------
----------------------
INITIAL GUESS ORBITALS
----------------------
                      0         1         2         3         4         5   
                 -20.42425 -11.09339  -1.45995  -0.69945  -0.55109  -0.55109
                   2.00000   2.00000   2.00000   2.00000   2.00000   2.00000
                  --------  --------  --------  --------  --------  --------
  0C   1s         0.000397 -0.993603  0.126550 -0.166033 -0.000000 -0.000000
  0C   2s        -0.008707 -0.026321 -0.240295  0.538669  0.000000  0.000000
  0C   1pz       -0.007378 -0.007013 -0.166937  0.067867  0.000000  0.000000
  0C   1px       -0.000000  0.000000  0.000000 -0.000000  0.353796 -0.270843
  0C   1py       -0.000000 -0.000000 -0.000000 -0.000000 -0.270843 -0.353796
  1O   1s         0.994150  0.000214  0.222429  0.132000  0.000000  0.000000
  1O   2s         0.027780  0.006936 -0.766373 -0.645855 -0.000000 -0.000000
  1O   1pz       -0.006835 -0.000979  0.217965 -0.627722 -0.000000 -0.000000
  1O   1px       -0.000000 -0.000000  0.000000  0.000000  0.628029 -0.480777
  1O   1py       -0.000000  0.000000  0.000000  0.000000 -0.480777 -0.628029
                      6         7         8         9   
                  -0.44646   0.31340   0.31340   1.04005
                   2.00000   0.00000   0.00000   0.00000
                  --------  --------  --------  --------
  0C   1s        -0.167121 -0.000000 -0.000000  0.121927
  0C   2s         0.760911 -0.000000  0.000000 -0.973644
  0C   1pz       -0.572801  0.000000 -0.000000 -1.228912
  0C   1px       -0.000000 -0.636840 -0.679950  0.000000
  0C   1py        0.000000  0.679950 -0.636840 -0.000000
  1O   1s         0.001092  0.000000 -0.000000 -0.128274
  1O   2s         0.038166 -0.000000  0.000000  1.085178
  1O   1pz        0.434073 -0.000000  0.000000 -0.969183
  1O   1px        0.000000  0.453885  0.484610 -0.000000
  1O   1py       -0.000000 -0.484610  0.453885 -0.000000
--------------
SCF ITERATIONS
--------------
               ***  Starting incremental Fock matrix formation  ***
===> SHARK/Fock/General/Sym: HFTyp=1 DoJ=1 DoX=1 facj= 2.000 facx=-0.500 NFock=1 NumOp=1 NMat=1 RangeSep=0 GeneralContraction=0 PGCOpt=-1
    -> L=0 0 0 0:     0.000 sec done=        54 (= 98.2%) skipped=         1 
    -> L=1 0 0 0:     0.000 sec done=        80 (=100.0%) skipped=         0 
    -> L=1 0 1 0:     0.000 sec done=        36 (=100.0%) skipped=         0 
    -> L=1 1 0 0:     0.000 sec done=        30 (=100.0%) skipped=         0 
    -> L=1 1 1 0:     0.000 sec done=        24 (=100.0%) skipped=         0 
    -> L=1 1 1 1:     0.000 sec done=         6 (=100.0%) skipped=         0 
    -> RHF LowL loop time =     0.001 sec
    ->Total SHARK integral loop time =    0.000 sec
    ->Total LIBINT loop time =    0.003 sec
                      *** Initiating the SOSCF procedure ***
                      *** Re-Reading the Fockian *** 
                      *** Removing any level shift *** 

                         ----------------------------
                         !        ITERATION     0   !
                         ----------------------------
   Total Energy        :    -111.224580536489 Eh
   Energy Change       :    -111.224580536489 Eh
   MAX-DP              :       0.000000563250
   RMS-DP              :       0.000000105829
   Orbital gradient    :       0.000000262478
   Orbital Rotation    :       0.000000262478
   Actual Damping      :       0.0000

               *** Restarting incremental Fock matrix formation ***
===> SHARK/Fock/General/Sym: HFTyp=1 DoJ=1 DoX=1 facj= 2.000 facx=-0.500 NFock=1 NumOp=1 NMat=1 RangeSep=0 GeneralContraction=0 PGCOpt=-1
    -> L=0 0 0 0:     0.000 sec done=        54 (= 98.2%) skipped=         1 
    -> L=1 0 0 0:     0.000 sec done=        80 (=100.0%) skipped=         0 
    -> L=1 0 1 0:     0.000 sec done=        36 (=100.0%) skipped=         0 
    -> L=1 1 0 0:     0.000 sec done=        30 (=100.0%) skipped=         0 
    -> L=1 1 1 0:     0.000 sec done=        24 (=100.0%) skipped=         0 
    -> L=1 1 1 1:     0.000 sec done=         6 (=100.0%) skipped=         0 
    -> RHF LowL loop time =     0.001 sec
    ->Total SHARK integral loop time =    0.000 sec
    ->Total LIBINT loop time =    0.000 sec
                 **** Energy Check signals convergence ****
              ***Rediagonalizing the Fockian in SOSCF/NRSCF***

               *****************************************************
               *                     SUCCESS                       *
               *           SCF CONVERGED AFTER   1 CYCLES          *
               *****************************************************


----------------
TOTAL SCF ENERGY
----------------

Total Energy       :         -111.22458054 Eh           -3026.57470 eV

Components:
Nuclear Repulsion  :           22.51395252 Eh             612.63579 eV
Electronic Energy  :         -133.73853306 Eh           -3639.21050 eV
One Electron Energy:         -197.02568675 Eh           -5361.34150 eV
Two Electron Energy:           63.28715369 Eh            1722.13100 eV

Virial components:
Potential Energy   :         -221.65316506 Eh           -6031.48926 eV
Kinetic Energy     :          110.42858453 Eh            3004.91455 eV
Virial Ratio       :            2.00720824


---------------
SCF CONVERGENCE
---------------

  Last Energy change         ...   -1.9895e-13  Tolerance :   1.0000e-06
  Last MAX-Density change    ...    1.7072e-07  Tolerance :   1.0000e-05
  Last RMS-Density change    ...    4.0200e-08  Tolerance :   1.0000e-06
  Last Orbital Gradient      ...    1.0071e-07  Tolerance :   5.0000e-05
  Last Orbital Rotation      ...    6.1224e-08  Tolerance :   5.0000e-05

             **** THE GBW FILE WAS UPDATED (co-b.gbw) ****
             **** DENSITY co-b.scfp WAS UPDATED ****
             **** ENERGY FILE WAS UPDATED (co-b.en.tmp) ****
             **** THE GBW FILE WAS UPDATED (co-b.gbw) ****
             **** DENSITY co-b.scfp WAS UPDATED ****
----------------
ORBITAL ENERGIES
----------------

  NO   OCC          E(Eh)            E(eV) 
   0   2.0000     -20.424245      -555.7720 
   1   2.0000     -11.093395      -301.8666 
   2   2.0000      -1.459952       -39.7273 
   3   2.0000      -0.699452       -19.0331 
   4   2.0000      -0.551094       -14.9960 
   5   2.0000      -0.551094       -14.9960 
   6   2.0000      -0.446458       -12.1487 
   7   0.0000       0.313404         8.5282 
   8   0.0000       0.313404         8.5282 
   9   0.0000       1.040051        28.3012 
------------------
MOLECULAR ORBITALS
------------------
                      0         1         2         3         4         5   
                 -20.42425 -11.09340  -1.45995  -0.69945  -0.55109  -0.55109
                   2.00000   2.00000   2.00000   2.00000   2.00000   2.00000
                  --------  --------  --------  --------  --------  --------
  0C   1s        -0.000397 -0.993603  0.126550 -0.166033  0.000000 -0.000000
  0C   2s         0.008707 -0.026321 -0.240295  0.538669 -0.000000  0.000000
  0C   1pz        0.007378 -0.007013 -0.166937  0.067866 -0.000000 -0.000000
  0C   1px       -0.000000  0.000000 -0.000000 -0.000000 -0.410767 -0.172621
  0C   1py        0.000000  0.000000 -0.000000 -0.000000  0.172621 -0.410767
  1O   1s        -0.994150  0.000214  0.222429  0.132000  0.000000 -0.000000
  1O   2s        -0.027780  0.006936 -0.766373 -0.645855 -0.000000  0.000000
  1O   1pz        0.006835 -0.000979  0.217965 -0.627723 -0.000000  0.000000
  1O   1px        0.000000 -0.000000 -0.000000  0.000000 -0.729159 -0.306422
  1O   1py       -0.000000 -0.000000 -0.000000 -0.000000  0.306422 -0.729159
                      6         7         8         9   
                  -0.44646   0.31340   0.31340   1.04005
                   2.00000   0.00000   0.00000   0.00000
                  --------  --------  --------  --------
  0C   1s        -0.167121 -0.000000 -0.000000 -0.121927
  0C   2s         0.760911  0.000000  0.000000  0.973644
  0C   1pz       -0.572802 -0.000000 -0.000000  1.228912
  0C   1px       -0.000000  0.911346 -0.193251 -0.000000
  0C   1py        0.000000 -0.193251 -0.911346  0.000000
  1O   1s         0.001092 -0.000000 -0.000000  0.128274
  1O   2s         0.038167 -0.000000  0.000000 -1.085178
  1O   1pz        0.434072  0.000000  0.000000  0.969183
  1O   1px        0.000000 -0.649529  0.137733  0.000000
  1O   1py       -0.000000  0.137733  0.649529  0.000000


-------
DENSITY
-------
                  0          1          2          3          4          5    
      0       2.117516  -0.441723   0.140598   0.000000  -0.000000   0.012462
      1      -0.441723   1.855322  -0.717862  -0.000000   0.000000   0.019650
      2       0.140598  -0.717862   0.721358   0.000000  -0.000000  -0.072270
      3       0.000000  -0.000000   0.000000   0.397055  -0.000000   0.000000
      4      -0.000000   0.000000  -0.000000  -0.000000   0.397055  -0.000000
      5       0.012462   0.019650  -0.072270   0.000000  -0.000000   2.110467
      6      -0.006019  -0.270260   0.123977   0.000000   0.000000  -0.456112
      7       0.120466  -0.120270  -0.655135  -0.000000   0.000000  -0.081398
      8       0.000000   0.000000  -0.000000   0.704818  -0.000000   0.000000
      9       0.000000  -0.000000   0.000000  -0.000000   0.704818   0.000000
                  6          7          8          9    
      0      -0.006019   0.120466   0.000000   0.000000
      1      -0.270260  -0.120270   0.000000  -0.000000
      2       0.123977  -0.655135  -0.000000   0.000000
      3       0.000000  -0.000000   0.704818  -0.000000
      4       0.000000   0.000000  -0.000000   0.704818
      5      -0.456112  -0.081398   0.000000   0.000000
      6       2.013464   0.509491  -0.000000   0.000000
      7       0.509491   1.260022   0.000000  -0.000000
      8      -0.000000   0.000000   1.251134   0.000000
      9       0.000000  -0.000000   0.000000   1.251134



                    ********************************
                    * MULLIKEN POPULATION ANALYSIS *
                    ********************************

-----------------------
MULLIKEN ATOMIC CHARGES
-----------------------
   0 C :    0.200702
   1 O :   -0.200702
Sum of atomic charges:   -0.0000000

------------------------
MULLIKEN ORBITAL CHARGES
------------------------
The uncorrected charge=density diagonal is given in parenthesis)
   0:   0C   1s           1.998036 (  2.117516)
   1:   0C   2s           1.676962 (  1.855322)
   2:   0C   1pz          0.978379 (  0.721358)
   3:   0C   1px          0.572960 (  0.397055)
   4:   0C   1py          0.572960 (  0.397055)
   5:   1O   1s           1.997892 (  2.110467)
   6:   1O   2s           1.853696 (  2.013464)
   7:   1O   1pz          1.495034 (  1.260022)
   8:   1O   1px          1.427040 (  1.251134)
   9:   1O   1py          1.427040 (  1.251134)
Sum of orbital charges :   14.0000000

--------------------------------
MULLIKEN REDUCED ORBITAL CHARGES
--------------------------------
  0 C s       :     3.674998  s :     3.674998
      pz      :     0.978379  p :     2.124299
      px      :     0.572960
      py      :     0.572960
  1 O s       :     3.851588  s :     3.851588
      pz      :     1.495034  p :     4.349114
      px      :     1.427040
      py      :     1.427040

------------------------
MULLIKEN OVERLAP CHARGES
------------------------
B(  0-C ,  1-O ) :   1.0608 

-----------------------------------
MULLIKEN ORBITAL POPULATIONS PER MO
-----------------------------------
THRESHOLD FOR PRINTING IS 0.1%
                      0         1         2         3         4         5   
                 -20.42425 -11.09340  -1.45995  -0.69945  -0.55109  -0.55109
                   2.00000   2.00000   2.00000   2.00000   2.00000   2.00000
                  --------  --------  --------  --------  --------  --------
  0C   1s              0.0      99.3       0.2       0.2       0.0       0.0
  0C   2s             -0.0       0.7      14.2      24.5       0.0       0.0
  0C   1pz            -0.1       0.0       9.8      -0.3       0.0      -0.0
  0C   1px             0.0       0.0       0.0       0.0      24.3       4.3
  0C   1py             0.0      -0.0       0.0       0.0       4.3      24.3
  1O   1s             99.4       0.0       0.4       0.1       0.0       0.0
  1O   2s              0.7      -0.0      68.0      23.8       0.0       0.0
  1O   1pz             0.0      -0.0       7.5      51.6       0.0       0.0
  1O   1px             0.0       0.0       0.0      -0.0      60.6      10.7
  1O   1py             0.0       0.0       0.0       0.0      10.7      60.6

                      6         7         8         9   
                  -0.44646   0.31340   0.31340   1.04005
                   2.00000   0.00000   0.00000   0.00000
                  --------  --------  --------  --------
  0C   1s              0.2      -0.0      -0.0       0.1
  0C   2s             44.5       0.0       0.0      16.2
  0C   1pz            39.4       0.0       0.0      51.1
  0C   1px             0.0      68.3       3.1       0.0
  0C   1py             0.0       3.1      68.3       0.0
  1O   1s              0.0       0.0       0.0       0.1
  1O   2s              0.3       0.0       0.0       7.3
  1O   1pz            15.6      -0.0       0.0      25.2
  1O   1px             0.0      27.4       1.2      -0.0
  1O   1py            -0.0       1.2      27.4       0.0


                     *******************************
                     * LOEWDIN POPULATION ANALYSIS *
                     *******************************

----------------------
LOEWDIN ATOMIC CHARGES
----------------------
   0 C :    0.038091
   1 O :   -0.038091

-----------------------
LOEWDIN ORBITAL CHARGES
-----------------------
   0:   0C   1s           1.996714
   1:   0C   2s           1.664012
   2:   0C   1pz          1.128235
   3:   0C   1px          0.586474
   4:   0C   1py          0.586474
   5:   1O   1s           1.997394
   6:   1O   2s           1.689927
   7:   1O   1pz          1.523717
   8:   1O   1px          1.413526
   9:   1O   1py          1.413526

-------------------------------
LOEWDIN REDUCED ORBITAL CHARGES
-------------------------------
  0 C s       :     3.660727  s :     3.660727
      pz      :     1.128235  p :     2.301183
      px      :     0.586474
      py      :     0.586474
  1 O s       :     3.687321  s :     3.687321
      pz      :     1.523717  p :     4.350770
      px      :     1.413526
      py      :     1.413526

---------------------------------
LOEWDIN BOND ORDERS (THRESH 0.050000)
---------------------------------
B(  0-C ,  1-O ) :   2.6135 

----------------------------------
LOEWDIN ORBITAL POPULATIONS PER MO
----------------------------------
THRESHOLD FOR PRINTING IS 0.1%
                      0         1         2         3         4         5   
                 -20.42425 -11.09340  -1.45995  -0.69945  -0.55109  -0.55109
                   2.00000   2.00000   2.00000   2.00000   2.00000   2.00000
                  --------  --------  --------  --------  --------  --------
  0C   1s              0.0      97.7       0.7       0.8       0.0       0.0
  0C   2s              0.0       2.1      17.6      20.9       0.0       0.0
  0C   1pz             0.1       0.0      14.7       0.1       0.0       0.0
  0C   1px             0.0       0.0       0.0       0.0      24.9       4.4
  0C   1py             0.0       0.0       0.0       0.0       4.4      24.9
  1O   1s             98.0       0.0       1.5       0.4       0.0       0.0
  1O   2s              2.0       0.0      59.6      22.3       0.0       0.0
  1O   1pz             0.0       0.1       6.0      55.6       0.0       0.0
  1O   1px             0.0       0.0       0.0       0.0      60.1      10.6
  1O   1py             0.0       0.0       0.0       0.0      10.6      60.1

                      6         7         8         9   
                  -0.44646   0.31340   0.31340   1.04005
                   2.00000   0.00000   0.00000   0.00000
                  --------  --------  --------  --------
  0C   1s              0.7       0.0       0.0       0.2
  0C   2s             42.6       0.0       0.0      16.8
  0C   1pz            41.6       0.0       0.0      43.6
  0C   1px             0.0      67.6       3.0       0.0
  0C   1py             0.0       3.0      67.6       0.0
  1O   1s              0.0       0.0       0.0       0.1
  1O   2s              0.6       0.0       0.0      15.5
  1O   1pz            14.4       0.0       0.0      23.8
  1O   1px             0.0      28.1       1.3       0.0
  1O   1py             0.0       1.3      28.1       0.0

------------------------------------------
LOEWDIN REDUCED ORBITAL POPULATIONS PER MO
-------------------------------------------
THRESHOLD FOR PRINTING IS 0.1%
                      0         1         2         3         4         5   
                 -20.42425 -11.09340  -1.45995  -0.69945  -0.55109  -0.55109
                   2.00000   2.00000   2.00000   2.00000   2.00000   2.00000
                  --------  --------  --------  --------  --------  --------
 0 C  s               0.0      99.9      18.2      21.6       0.0       0.0
 0 C  pz              0.1       0.0      14.7       0.1       0.0       0.0
 0 C  px              0.0       0.0       0.0       0.0      24.9       4.4
 0 C  py              0.0       0.0       0.0       0.0       4.4      24.9
 1 O  s              99.9       0.0      61.1      22.7       0.0       0.0
 1 O  pz              0.0       0.1       6.0      55.6       0.0       0.0
 1 O  px              0.0       0.0       0.0       0.0      60.1      10.6
 1 O  py              0.0       0.0       0.0       0.0      10.6      60.1

                      6         7         8         9   
                  -0.44646   0.31340   0.31340   1.04005
                   2.00000   0.00000   0.00000   0.00000
                  --------  --------  --------  --------
 0 C  s              43.3       0.0       0.0      17.0
 0 C  pz             41.6       0.0       0.0      43.6
 0 C  px              0.0      67.6       3.0       0.0
 0 C  py              0.0       3.0      67.6       0.0
 1 O  s               0.6       0.0       0.0      15.6
 1 O  pz             14.4       0.0       0.0      23.8
 1 O  px              0.0      28.1       1.3       0.0
 1 O  py              0.0       1.3      28.1       0.0


                      *****************************
                      * MAYER POPULATION ANALYSIS *
                      *****************************

  NA   - Mulliken gross atomic population
  ZA   - Total nuclear charge
  QA   - Mulliken gross atomic charge
  VA   - Mayer's total valence
  BVA  - Mayer's bonded valence
  FA   - Mayer's free valence

  ATOM       NA         ZA         QA         VA         BVA        FA
  0 C      5.7993     6.0000     0.2007     2.5151     2.5151    -0.0000
  1 O      8.2007     8.0000    -0.2007     2.5151     2.5151    -0.0000

  Mayer bond orders larger than 0.100000
B(  0-C ,  1-O ) :   2.5151 

-------
TIMINGS
-------

Total SCF time: 0 days 0 hours 0 min 0 sec 

Total time                  ....       0.057 sec
Sum of individual times     ....       0.007 sec  ( 11.9%)

Fock matrix formation       ....       0.005 sec  (  8.8%)
Diagonalization             ....       0.000 sec  (  0.1%)
Density matrix formation    ....       0.000 sec  (  0.0%)
Population analysis         ....       0.001 sec  (  2.3%)
Initial guess               ....       0.000 sec  (  0.7%)
Orbital Transformation      ....       0.000 sec  (  0.0%)
Orbital Orthonormalization  ....       0.000 sec  (  0.1%)
DIIS solution               ....       0.000 sec  (  0.0%)
SOSCF solution              ....       0.000 sec  (  0.1%)

Maximum memory used throughout the entire SCF-calculation: 223.7 MB

-------------------------   --------------------
FINAL SINGLE POINT ENERGY      -111.224580536489
-------------------------   --------------------


                            ***************************************
                            *     ORCA property calculations      *
                            ***************************************

                                    ---------------------
                                    Active property flags
                                    ---------------------
   (+) Dipole Moment


------------------------------------------------------------------------------
                       ORCA ELECTRIC PROPERTIES CALCULATION
------------------------------------------------------------------------------

Dipole Moment Calculation                       ... on
Quadrupole Moment Calculation                   ... off
Polarizability Calculation                      ... off
GBWName                                         ... co-b.gbw
Electron density                                ... co-b.scfp
SHARK General Contraction Test:  Segmented basis detected
   -> Pre-screening matrix found on disk - Trying to read with NShells=6
   -> Passing Pre-screening matrix on to SHARK ...ok
   -> Leaving CheckPreScreeningMatrix
----------------------
SHARK INTEGRAL PACKAGE
----------------------

Number of atoms                             ...      2
Number of basis functions                   ...     10
Number of shells                            ...      6
Maximum angular momentum                    ...      1
Integral batch strategy                     ... SHARK/LIBINT Hybrid
RI-J (if used) integral strategy            ... SPLIT-RIJ (Revised 2003 algorithm where possible)
Printlevel                                  ...      2
Contraction scheme used                     ... SEGMENTED contraction
Coulomb Range Separation                    ... NOT USED
Exchange Range Separation                   ... NOT USED
Finite Nucleus Model                        ... NOT USED
Auxiliary Coulomb fitting basis             ... NOT available
Auxiliary J/K fitting basis                 ... NOT available
Auxiliary Correlation fitting basis         ... NOT available
Auxiliary 'external' fitting basis          ... NOT available
Integral threshold                          ...     1.000000e-10
Primitive cut-off                           ...     1.000000e-11
Primitive pair pre-selection threshold      ...     1.000000e-11

The origin for moment calculation is the CENTER OF MASS  = ( 0.000000,  0.000000  1.217781)

-------------
DIPOLE MOMENT
-------------
                                X             Y             Z
Electronic contribution:      0.00000      -0.00000       0.05902
Nuclear contribution   :      0.00000       0.00000       0.00715
                        -----------------------------------------
Total Dipole Moment    :      0.00000      -0.00000       0.06618
                        -----------------------------------------
Magnitude (a.u.)       :      0.06618
Magnitude (Debye)      :      0.16821



--------------------
Rotational spectrum 
--------------------
 
Rotational constants in cm-1:     0.000000     1.930442     1.930442 
Rotational constants in MHz :     0.000000 57873.195492 57873.195492 

 Dipole components along the rotational axes: 
x,y,z [a.u.] :     0.066179    -0.000000     0.000000 
x,y,z [Debye]:     0.168214    -0.000000     0.000000 

 

Timings for individual modules:

Sum of individual times         ...        0.103 sec (=   0.002 min)
GTO integral calculation        ...        0.035 sec (=   0.001 min)  34.3 %
SCF iterations                  ...        0.067 sec (=   0.001 min)  65.7 %
                             ****ORCA TERMINATED NORMALLY****
TOTAL RUN TIME: 0 days 0 hours 0 minutes 0 seconds 134 msec
