
                                 *****************
                                 * O   R   C   A *
                                 *****************

                                            #,                                       
                                            ###                                      
                                            ####                                     
                                            #####                                    
                                            ######                                   
                                           ########,                                 
                                     ,,################,,,,,                         
                               ,,#################################,,                 
                          ,,##########################################,,             
                       ,#########################################, ''#####,          
                    ,#############################################,,   '####,        
                  ,##################################################,,,,####,       
                ,###########''''           ''''###############################       
              ,#####''   ,,,,##########,,,,          '''####'''          '####       
            ,##' ,,,,###########################,,,                        '##       
           ' ,,###''''                  '''############,,,                           
         ,,##''                                '''############,,,,        ,,,,,,###''
      ,#''                                            '''#######################'''  
     '                                                          ''''####''''         
             ,#######,   #######,   ,#######,      ##                                
            ,#'     '#,  ##    ##  ,#'     '#,    #''#        ######   ,####,        
            ##       ##  ##   ,#'  ##            #'  '#       #        #'  '#        
            ##       ##  #######   ##           ,######,      #####,   #    #        
            '#,     ,#'  ##    ##  '#,     ,#' ,#      #,         ##   #,  ,#        
             '#######'   ##     ##  '#######'  #'      '#     #####' # '####'        



                  #######################################################
                  #                        -***-                        #
                  #          Department of theory and spectroscopy      #
                  #    Directorship and core code : Frank Neese         #
                  #        Max Planck Institute fuer Kohlenforschung    #
                  #                Kaiser Wilhelm Platz 1               #
                  #                 D-45470 Muelheim/Ruhr               #
                  #                      Germany                        #
                  #                                                     #
                  #                  All rights reserved                #
                  #                        -***-                        #
                  #######################################################


                         Program Version 5.0.4 -  RELEASE  -


 With contributions from (in alphabetic order):
   Daniel Aravena         : Magnetic Suceptibility
   Michael Atanasov       : Ab Initio Ligand Field Theory (pilot matlab implementation)
   Alexander A. Auer      : GIAO ZORA, VPT2 properties, NMR spectrum
   Ute Becker             : Parallelization
   Giovanni Bistoni       : ED, misc. LED, open-shell LED, HFLD
   Martin Brehm           : Molecular dynamics
   Dmytro Bykov           : SCF Hessian
   Vijay G. Chilkuri      : MRCI spin determinant printing, contributions to CSF-ICE
   Dipayan Datta          : RHF DLPNO-CCSD density
   Achintya Kumar Dutta   : EOM-CC, STEOM-CC
   Dmitry Ganyushin       : Spin-Orbit,Spin-Spin,Magnetic field MRCI
   Miquel Garcia          : C-PCM and meta-GGA Hessian, CC/C-PCM, Gaussian charge scheme
   Yang Guo               : DLPNO-NEVPT2, F12-NEVPT2, CIM, IAO-localization
   Andreas Hansen         : Spin unrestricted coupled pair/coupled cluster methods
   Benjamin Helmich-Paris : MC-RPA, TRAH-SCF, COSX integrals
   Lee Huntington         : MR-EOM, pCC
   Robert Izsak           : Overlap fitted RIJCOSX, COSX-SCS-MP3, EOM
   Marcus Kettner         : VPT2
   Christian Kollmar      : KDIIS, OOCD, Brueckner-CCSD(T), CCSD density, CASPT2, CASPT2-K
   Simone Kossmann        : Meta GGA functionals, TD-DFT gradient, OOMP2, MP2 Hessian
   Martin Krupicka        : Initial AUTO-CI
   Lucas Lang             : DCDCAS
   Marvin Lechner         : AUTO-CI (C++ implementation), FIC-MRCC
   Dagmar Lenk            : GEPOL surface, SMD
   Dimitrios Liakos       : Extrapolation schemes; Compound Job, initial MDCI parallelization
   Dimitrios Manganas     : Further ROCIS development; embedding schemes
   Dimitrios Pantazis     : SARC Basis sets
   Anastasios Papadopoulos: AUTO-CI, single reference methods and gradients
   Taras Petrenko         : DFT Hessian,TD-DFT gradient, ASA, ECA, R-Raman, ABS, FL, XAS/XES, NRVS
   Peter Pinski           : DLPNO-MP2, DLPNO-MP2 Gradient
   Christoph Reimann      : Effective Core Potentials
   Marius Retegan         : Local ZFS, SOC
   Christoph Riplinger    : Optimizer, TS searches, QM/MM, DLPNO-CCSD(T), (RO)-DLPNO pert. Triples
   Tobias Risthaus        : Range-separated hybrids, TD-DFT gradient, RPA, STAB
   Michael Roemelt        : Original ROCIS implementation
   Masaaki Saitow         : Open-shell DLPNO-CCSD energy and density
   Barbara Sandhoefer     : DKH picture change effects
   Avijit Sen             : IP-ROCIS
   Kantharuban Sivalingam : CASSCF convergence, NEVPT2, FIC-MRCI
   Bernardo de Souza      : ESD, SOC TD-DFT
   Georgi Stoychev        : AutoAux, RI-MP2 NMR, DLPNO-MP2 response
   Willem Van den Heuvel  : Paramagnetic NMR
   Boris Wezisla          : Elementary symmetry handling
   Frank Wennmohs         : Technical directorship


 We gratefully acknowledge several colleagues who have allowed us to
 interface, adapt or use parts of their codes:
   Stefan Grimme, W. Hujo, H. Kruse, P. Pracht,  : VdW corrections, initial TS optimization,
                  C. Bannwarth, S. Ehlert          DFT functionals, gCP, sTDA/sTD-DF
   Ed Valeev, F. Pavosevic, A. Kumar             : LibInt (2-el integral package), F12 methods
   Garnet Chan, S. Sharma, J. Yang, R. Olivares  : DMRG
   Ulf Ekstrom                                   : XCFun DFT Library
   Mihaly Kallay                                 : mrcc  (arbitrary order and MRCC methods)
   Jiri Pittner, Ondrej Demel                    : Mk-CCSD
   Frank Weinhold                                : gennbo (NPA and NBO analysis)
   Christopher J. Cramer and Donald G. Truhlar   : smd solvation model
   Lars Goerigk                                  : TD-DFT with DH, B97 family of functionals
   V. Asgeirsson, H. Jonsson                     : NEB implementation
   FAccTs GmbH                                   : IRC, NEB, NEB-TS, DLPNO-Multilevel, CI-OPT
                                                   MM, QMMM, 2- and 3-layer-ONIOM, Crystal-QMMM,
                                                   LR-CPCM, SF, NACMEs, symmetry and pop. for TD-DFT,
                                                   nearIR, NL-DFT gradient (VV10), updates on ESD,
                                                   ML-optimized integration grids
   S Lehtola, MJT Oliveira, MAL Marques          : LibXC Library
   Liviu Ungur et al                             : ANISO software


 Your calculation uses the libint2 library for the computation of 2-el integrals
 For citations please refer to: http://libint.valeyev.net

 Your ORCA version has been built with support for libXC version: 5.1.0
 For citations please refer to: https://tddft.org/programs/libxc/

 This ORCA versions uses:
   CBLAS   interface :  Fast vector & matrix operations
   LAPACKE interface :  Fast linear algebra routines
   SCALAPACK package :  Parallel linear algebra routines
   Shared memory     :  Shared parallel matrices
   BLAS/LAPACK       :  OpenBLAS 0.3.15  USE64BITINT DYNAMIC_ARCH NO_AFFINITY Zen SINGLE_THREADED
        Core in use  :  Zen
   Copyright (c) 2011-2014, The OpenBLAS Project




***************************************
The coordinates will be read from file: co.xyz
***************************************


================================================================================

----- Orbital basis set information -----
Your calculation utilizes the basis: STO-3G
   H-Ne       : W. J. Hehre, R. F. Stewart and J. A. Pople, J. Chem. Phys. 2657 (1969).
   Na-Ar      : W. J. Hehre, R. Ditchfield, R. F. Stewart and J. A. Pople, J. Chem. Phys. 2769 (1970).
   K,Ca,Ga-Kr : W. J. Pietro, B. A. Levy, W. J. Hehre and R. F. Stewart, J. Am. Chem. Soc. 19, 2225 (1980).
   Sc-Zn,Y-Cd : W. J. Pietro and W. J. Hehre, J. Comp. Chem. 4, 241 (1983).

================================================================================
                                        WARNINGS
                       Please study these warnings very carefully!
================================================================================


INFO   : the flag for use of the SHARK integral package has been found!

================================================================================
                                       INPUT FILE
================================================================================
NAME = co.inp
|  1> ! HF STO-3G LARGEPRINT
|  2> 
|  3> %output
|  4> 	Print[ P_Basis ] 2
|  5> 	Print[ P_MOs ] 1
|  6> end
|  7> 
|  8> * xyzfile 0 1 co.xyz
|  9> 
| 10>                          ****END OF INPUT****
================================================================================

                       ****************************
                       * Single Point Calculation *
                       ****************************

---------------------------------
CARTESIAN COORDINATES (ANGSTROEM)
---------------------------------
  C      0.000000    0.000000    0.000000
  O      0.000000    0.000000    2.132000

----------------------------
CARTESIAN COORDINATES (A.U.)
----------------------------
  NO LB      ZA    FRAG     MASS         X           Y           Z
   0 C     6.0000    0    12.011    0.000000    0.000000    0.000000
   1 O     8.0000    0    15.999    0.000000    0.000000    4.028896

--------------------------------
INTERNAL COORDINATES (ANGSTROEM)
--------------------------------
 C      0   0   0     0.000000000000     0.00000000     0.00000000
 O      1   0   0     2.132000000000     0.00000000     0.00000000

---------------------------
INTERNAL COORDINATES (A.U.)
---------------------------
 C      0   0   0     0.000000000000     0.00000000     0.00000000
 O      1   0   0     4.028896117520     0.00000000     0.00000000

---------------------
BASIS SET INFORMATION
---------------------
There are 2 groups of distinct atoms

 Group   1 Type C   : 6s3p contracted to 2s1p pattern {33/3}
 Group   2 Type O   : 6s3p contracted to 2s1p pattern {33/3}

Atom   0C    basis set group =>   1
Atom   1O    basis set group =>   2

-------------------------
BASIS SET IN INPUT FORMAT
-------------------------

 # Basis set for element : C 
 NewGTO C 
 S 3 
   1      71.6168370000      0.1543289700
   2      13.0450960000      0.5353281400
   3       3.5305122000      0.4446345400
 S 3 
   1       2.9412494000     -0.0999672301
   2       0.6834831000      0.3995128303
   3       0.2222899000      0.7001154705
 P 3 
   1       2.9412494000      0.1559162721
   2       0.6834831000      0.6076837282
   3       0.2222899000      0.3919573953
  end;

 # Basis set for element : O 
 NewGTO O 
 S 3 
   1     130.7093200000      0.1543289687
   2      23.8088610000      0.5353281356
   3       6.4436083000      0.4446345363
 S 3 
   1       5.0331513000     -0.0999672287
   2       1.1695961000      0.3995128246
   3       0.3803890000      0.7001154606
 P 3 
   1       5.0331513000      0.1559162685
   2       1.1695961000      0.6076837141
   3       0.3803890000      0.3919573862
  end;

------------------------------------------------------------------------------
                           ORCA GTO INTEGRAL CALCULATION
------------------------------------------------------------------------------
------------------------------------------------------------------------------
                   ___                                                        
                  /   \      - P O W E R E D   B Y -                         
                 /     \                                                     
                 |  |  |   _    _      __       _____    __    __             
                 |  |  |  | |  | |    /  \     |  _  \  |  |  /  |          
                  \  \/   | |  | |   /    \    | | | |  |  | /  /          
                 / \  \   | |__| |  /  /\  \   | |_| |  |  |/  /          
                |  |  |   |  __  | /  /__\  \  |    /   |      \           
                |  |  |   | |  | | |   __   |  |    \   |  |\   \          
                \     /   | |  | | |  |  |  |  | |\  \  |  | \   \       
                 \___/    |_|  |_| |__|  |__|  |_| \__\ |__|  \__/        
                                                                              
                      - O R C A' S   B I G   F R I E N D -                    
                                      &                                       
                       - I N T E G R A L  F E E D E R -                       
                                                                              
 v1 FN, 2020, v2 2021                                                         
------------------------------------------------------------------------------


Reading SHARK input file co.SHARKINP.tmp ... SHARK General Contraction Test:  Segmented basis detected
   -> Pre-screening matrix *NOT* found on disk - recalculating with NShells=6
   -> Leaving CheckPreScreeningMatrix
ok
----------------------
SHARK INTEGRAL PACKAGE
----------------------

Number of atoms                             ...      2
Number of basis functions                   ...     10
Number of shells                            ...      6
Maximum angular momentum                    ...      1
Integral batch strategy                     ... SHARK/LIBINT Hybrid
RI-J (if used) integral strategy            ... SPLIT-RIJ (Revised 2003 algorithm where possible)
Printlevel                                  ...      2
Contraction scheme used                     ... SEGMENTED contraction
Coulomb Range Separation                    ... NOT USED
Exchange Range Separation                   ... NOT USED
Finite Nucleus Model                        ... NOT USED
Auxiliary Coulomb fitting basis             ... NOT available
Auxiliary J/K fitting basis                 ... NOT available
Auxiliary Correlation fitting basis         ... NOT available
Auxiliary 'external' fitting basis          ... NOT available
Integral threshold                          ...     1.000000e-10
Primitive cut-off                           ...     1.000000e-11
Primitive pair pre-selection threshold      ...     1.000000e-11

Calculating pre-screening integrals         ... done (  0.0 sec) Dimension = 6
Organizing shell pair data                  ... done (  0.0 sec)
Shell pair information
Total number of shell pairs                 ...        21
Shell pairs after pre-screening             ...        20
Total number of primitive shell pairs       ...       189
Primitive shell pairs kept                  ...       164
          la=0 lb=0:      9 shell pairs
          la=1 lb=0:      8 shell pairs
          la=1 lb=1:      3 shell pairs

Calculating one electron integrals          ... done (  0.0 sec)
Calculating Nuclear repulsion               ... done (  0.0 sec) ENN=     11.913933395122 Eh

SHARK setup successfully completed in   0.0 seconds

Maximum memory used throughout the entire GTOINT-calculation: 3.9 MB
-------------------------------------------------------------------------------
                                 ORCA SCF
-------------------------------------------------------------------------------

------------
SCF SETTINGS
------------
Hamiltonian:
 Ab initio Hamiltonian  Method          .... Hartree-Fock(GTOs)


General Settings:
 Integral files         IntName         .... co
 Hartree-Fock type      HFTyp           .... RHF
 Total Charge           Charge          ....    0
 Multiplicity           Mult            ....    1
 Number of Electrons    NEL             ....   14
 Basis Dimension        Dim             ....   10
 Nuclear Repulsion      ENuc            ....     11.9139333951 Eh

Convergence Acceleration:
 DIIS                   CNVDIIS         .... on
   Start iteration      DIISMaxIt       ....    12
   Startup error        DIISStart       ....  0.200000
   # of expansion vecs  DIISMaxEq       ....     5
   Bias factor          DIISBfac        ....   1.050
   Max. coefficient     DIISMaxC        ....  10.000
 Trust-Rad. Augm. Hess. CNVTRAH         .... auto
   Auto Start mean grad. ratio tolernc. ....  1.125000
   Auto Start start iteration           ....    20
   Auto Start num. interpolation iter.  ....    10
   Max. Number of Micro iterations      ....    16
   Max. Number of Macro iterations      .... Maxiter - #DIIS iter
   Number of Davidson start vectors     ....     2
   Converg. threshold I  (grad. norm)   ....   5.000e-05
   Converg. threshold II (energy diff.) ....   1.000e-06
   Grad. Scal. Fac. for Micro threshold ....   0.100
   Minimum threshold for Micro iter.    ....   0.010
   NR start threshold (gradient norm)   ....   0.001
   Initial trust radius                 ....   0.400
   Minimum AH scaling param. (alpha)    ....   1.000
   Maximum AH scaling param. (alpha)    .... 1000.000
   Orbital update algorithm             .... Taylor
   White noise on init. David. guess    .... on
   Maximum white noise                  ....   0.010
   Quad. conv. algorithm                .... NR
 SOSCF                  CNVSOSCF        .... on
   Start iteration      SOSCFMaxIt      ....   150
   Startup grad/error   SOSCFStart      ....  0.003300
 Level Shifting         CNVShift        .... on
   Level shift para.    LevelShift      ....    0.2500
   Turn off err/grad.   ShiftErr        ....    0.0010
 Zerner damping         CNVZerner       .... off
 Static damping         CNVDamp         .... on
   Fraction old density DampFac         ....    0.7000
   Max. Damping (<1)    DampMax         ....    0.9800
   Min. Damping (>=0)   DampMin         ....    0.0000
   Turn off err/grad.   DampErr         ....    0.1000
 Fernandez-Rico         CNVRico         .... off

SCF Procedure:
 Maximum # iterations   MaxIter         ....   125
 SCF integral mode      SCFMode         .... Direct
   Integral package                     .... SHARK and LIBINT hybrid scheme
 Reset frequency        DirectResetFreq ....    20
 Integral Threshold     Thresh          ....  1.000e-10 Eh
 Primitive CutOff       TCut            ....  1.000e-11 Eh

Convergence Tolerance:
 Convergence Check Mode ConvCheckMode   .... Total+1el-Energy
 Convergence forced     ConvForced      .... 0
 Energy Change          TolE            ....  1.000e-06 Eh
 1-El. energy change                    ....  1.000e-03 Eh
 Orbital Gradient       TolG            ....  5.000e-05
 Orbital Rotation angle TolX            ....  5.000e-05
 DIIS Error             TolErr          ....  1.000e-06


Diagonalization of the overlap matrix:
Smallest eigenvalue                        ... 7.047e-01
Time for diagonalization                   ...    0.000 sec
Threshold for overlap eigenvalues          ... 1.000e-08
Number of eigenvalues below threshold      ... 0
Time for construction of square roots      ...    0.000 sec
Total time needed                          ...    0.000 sec

SHARK General Contraction Test:  Segmented basis detected
   -> Pre-screening matrix found on disk - Trying to read with NShells=6
   -> Passing Pre-screening matrix on to SHARK ...ok
   -> Leaving CheckPreScreeningMatrix
----------------------
SHARK INTEGRAL PACKAGE
----------------------

Number of atoms                             ...      2
Number of basis functions                   ...     10
Number of shells                            ...      6
Maximum angular momentum                    ...      1
Integral batch strategy                     ... SHARK/LIBINT Hybrid
RI-J (if used) integral strategy            ... SPLIT-RIJ (Revised 2003 algorithm where possible)
Printlevel                                  ...      2
Contraction scheme used                     ... SEGMENTED contraction
Coulomb Range Separation                    ... NOT USED
Exchange Range Separation                   ... NOT USED
Finite Nucleus Model                        ... NOT USED
Auxiliary Coulomb fitting basis             ... NOT available
Auxiliary J/K fitting basis                 ... NOT available
Auxiliary Correlation fitting basis         ... NOT available
Auxiliary 'external' fitting basis          ... NOT available
Integral threshold                          ...     1.000000e-10
Primitive cut-off                           ...     1.000000e-11
Primitive pair pre-selection threshold      ...     1.000000e-11

Time for model grid setup =    0.008 sec

------------------------------
INITIAL GUESS: MODEL POTENTIAL
------------------------------
Loading Hartree-Fock densities                     ... done
Calculating cut-offs                               ... done
Initializing the effective Hamiltonian             ... done
Setting up the integral package (SHARK)            ... done
Starting the Coulomb interaction                   ...     -> Generating integrals - 
    -> L=0 0 :     0.000 sec done=       198 skipped=         0 prim-skipped=         0
    -> L=1 0 :     0.000 sec done=       176 skipped=         0 prim-skipped=         0
    -> L=1 1 :     0.000 sec done=        66 skipped=         0 prim-skipped=         0
done (   0.0 sec)
Reading the grid                                   ... done
Mapping shells                                     ... done
Starting the XC term evaluation                    ... done (   0.0 sec)
Transforming the Hamiltonian                       ... done (   0.0 sec)
Diagonalizing the Hamiltonian                      ... done (   0.0 sec)
Back transforming the eigenvectors                 ... done (   0.0 sec)
Now organizing SCF variables                       ... done
                      ------------------
                      INITIAL GUESS DONE (   0.0 sec)
                      ------------------
----------------------
INITIAL GUESS ORBITALS
----------------------
                      0         1         2         3         4         5   
                 -18.39298  -9.68062  -0.83621  -0.46167  -0.26488  -0.24517
                   2.00000   2.00000   2.00000   2.00000   2.00000   2.00000
                  --------  --------  --------  --------  --------  --------
  0C   1s         0.000255 -0.991458  0.020659 -0.277323 -0.072649  0.000000
  0C   2s        -0.001249 -0.032444 -0.070416  0.994324  0.268103 -0.000000
  0C   1pz       -0.001717 -0.000398 -0.042441  0.029080 -0.410365  0.000000
  0C   1px       -0.000000 -0.000000  0.000000  0.000000 -0.000000 -0.140952
  0C   1py       -0.000000 -0.000000  0.000000  0.000000 -0.000000  0.001132
  1O   1s         0.993342 -0.000393  0.266651  0.033035 -0.009741  0.000000
  1O   2s         0.026775  0.001806 -1.016644 -0.140112  0.044895 -0.000000
  1O   1pz       -0.000297 -0.001942  0.013173 -0.196028  0.849032 -0.000000
  1O   1px        0.000000 -0.000000  0.000000  0.000000 -0.000000 -0.986559
  1O   1py        0.000000 -0.000000  0.000000  0.000000 -0.000000  0.007923
                      6         7         8         9   
                  -0.24517  -0.12158  -0.12158  -0.07406
                   2.00000   0.00000   0.00000   0.00000
                  --------  --------  --------  --------
  0C   1s        -0.000000  0.000000  0.000000  0.027050
  0C   2s         0.000000 -0.000000 -0.000000 -0.102044
  0C   1pz       -0.000000 -0.000000 -0.000000 -0.923045
  0C   1px        0.001132  0.074929 -0.987476  0.000000
  0C   1py        0.140952 -0.987476 -0.074929  0.000000
  1O   1s        -0.000000  0.000000  0.000000 -0.028613
  1O   2s         0.000000 -0.000000 -0.000000  0.135789
  1O   1pz        0.000000 -0.000000 -0.000000 -0.509838
  1O   1px        0.007923 -0.012485  0.164543 -0.000000
  1O   1py        0.986559  0.164543  0.012485 -0.000000
--------------
SCF ITERATIONS
--------------
               ***  Starting incremental Fock matrix formation  ***
===> SHARK/Fock/General/Sym: HFTyp=1 DoJ=1 DoX=1 facj= 2.000 facx=-0.500 NFock=1 NumOp=1 NMat=1 RangeSep=0 GeneralContraction=0 PGCOpt=-1
    -> L=0 0 0 0:     0.000 sec done=        45 (=100.0%) skipped=         0 
    -> L=1 0 0 0:     0.000 sec done=        72 (=100.0%) skipped=         0 
    -> L=1 0 1 0:     0.000 sec done=        36 (=100.0%) skipped=         0 
    -> L=1 1 0 0:     0.000 sec done=        27 (=100.0%) skipped=         0 
    -> L=1 1 1 0:     0.000 sec done=        24 (=100.0%) skipped=         0 
    -> L=1 1 1 1:     0.000 sec done=         6 (=100.0%) skipped=         0 
    -> RHF LowL loop time =     0.001 sec
    ->Total SHARK integral loop time =    0.000 sec
    ->Total LIBINT loop time =    0.003 sec

                         ----------------------------
                         !        ITERATION     0   !
                         ----------------------------
   Total Energy        :    -109.993928089398 Eh
   Energy Change       :    -109.993928089398 Eh
   MAX-DP              :       0.556934605369
   RMS-DP              :       0.119180743529
   Actual Damping      :       0.7000
   Actual Level Shift  :       0.2500 Eh

===> SHARK/Fock/General/Sym: HFTyp=1 DoJ=1 DoX=1 facj= 2.000 facx=-0.500 NFock=1 NumOp=1 NMat=1 RangeSep=0 GeneralContraction=0 PGCOpt=-1
    -> L=0 0 0 0:     0.000 sec done=        45 (=100.0%) skipped=         0 
    -> L=1 0 0 0:     0.000 sec done=        72 (=100.0%) skipped=         0 
    -> L=1 0 1 0:     0.000 sec done=        36 (=100.0%) skipped=         0 
    -> L=1 1 0 0:     0.000 sec done=        27 (=100.0%) skipped=         0 
    -> L=1 1 1 0:     0.000 sec done=        24 (=100.0%) skipped=         0 
    -> L=1 1 1 1:     0.000 sec done=         6 (=100.0%) skipped=         0 
    -> RHF LowL loop time =     0.001 sec
    ->Total SHARK integral loop time =    0.000 sec
    ->Total LIBINT loop time =    0.000 sec

                         ----------------------------
                         !        ITERATION     1   !
                         ----------------------------
   Total Energy        :    -110.254811565049 Eh
   Energy Change       :      -0.260883475650 Eh
   MAX-DP              :       0.163297515686
   RMS-DP              :       0.023804124069
   Actual Damping      :       0.7000
   Actual Level Shift  :       0.2500 Eh

===> SHARK/Fock/General/Sym: HFTyp=1 DoJ=1 DoX=1 facj= 2.000 facx=-0.500 NFock=1 NumOp=1 NMat=1 RangeSep=0 GeneralContraction=0 PGCOpt=-1
    -> L=0 0 0 0:     0.000 sec done=        45 (=100.0%) skipped=         0 
    -> L=1 0 0 0:     0.000 sec done=        72 (=100.0%) skipped=         0 
    -> L=1 0 1 0:     0.000 sec done=        36 (=100.0%) skipped=         0 
    -> L=1 1 0 0:     0.000 sec done=        27 (=100.0%) skipped=         0 
    -> L=1 1 1 0:     0.000 sec done=        24 (=100.0%) skipped=         0 
    -> L=1 1 1 1:     0.000 sec done=         6 (=100.0%) skipped=         0 
    -> RHF LowL loop time =     0.001 sec
    ->Total SHARK integral loop time =    0.000 sec
    ->Total LIBINT loop time =    0.000 sec
                               ***Turning on DIIS***

                         ----------------------------
                         !        ITERATION     2   !
                         ----------------------------
   Total Energy        :    -110.337754590309 Eh
   Energy Change       :      -0.082943025260 Eh
   MAX-DP              :       0.106558988951
   RMS-DP              :       0.022084646856
   Actual Damping      :       0.7000
   Actual Level Shift  :       0.2500 Eh
   DIIS-Error          :       0.108192646469

===> SHARK/Fock/General/Sym: HFTyp=1 DoJ=1 DoX=1 facj= 2.000 facx=-0.500 NFock=1 NumOp=1 NMat=1 RangeSep=0 GeneralContraction=0 PGCOpt=-1
    -> L=0 0 0 0:     0.000 sec done=        45 (=100.0%) skipped=         0 
    -> L=1 0 0 0:     0.000 sec done=        72 (=100.0%) skipped=         0 
    -> L=1 0 1 0:     0.000 sec done=        36 (=100.0%) skipped=         0 
    -> L=1 1 0 0:     0.000 sec done=        27 (=100.0%) skipped=         0 
    -> L=1 1 1 0:     0.000 sec done=        24 (=100.0%) skipped=         0 
    -> L=1 1 1 1:     0.000 sec done=         6 (=100.0%) skipped=         0 
    -> RHF LowL loop time =     0.001 sec
    ->Total SHARK integral loop time =    0.000 sec
    ->Total LIBINT loop time =    0.000 sec

                         ----------------------------
                         !        ITERATION     3   !
                         ----------------------------
   Total Energy        :    -110.481048210130 Eh
   Energy Change       :      -0.143293619821 Eh
   MAX-DP              :       0.258298750867
   RMS-DP              :       0.051465928217
   Actual Damping      :       0.0000
   Actual Level Shift  :       0.2500 Eh
   DIIS-Error          :       0.073581757039
   DIIS coefficients:
      0.20785   0.79215

===> SHARK/Fock/General/Sym: HFTyp=1 DoJ=1 DoX=1 facj= 2.000 facx=-0.500 NFock=1 NumOp=1 NMat=1 RangeSep=0 GeneralContraction=0 PGCOpt=-1
    -> L=0 0 0 0:     0.000 sec done=        45 (=100.0%) skipped=         0 
    -> L=1 0 0 0:     0.000 sec done=        72 (=100.0%) skipped=         0 
    -> L=1 0 1 0:     0.000 sec done=        36 (=100.0%) skipped=         0 
    -> L=1 1 0 0:     0.000 sec done=        27 (=100.0%) skipped=         0 
    -> L=1 1 1 0:     0.000 sec done=        24 (=100.0%) skipped=         0 
    -> L=1 1 1 1:     0.000 sec done=         6 (=100.0%) skipped=         0 
    -> RHF LowL loop time =     0.001 sec
    ->Total SHARK integral loop time =    0.000 sec
    ->Total LIBINT loop time =    0.000 sec

                         ----------------------------
                         !        ITERATION     4   !
                         ----------------------------
   Total Energy        :    -111.146712541792 Eh
   Energy Change       :      -0.665664331663 Eh
   MAX-DP              :       0.013097887648
   RMS-DP              :       0.001857475018
   Actual Damping      :       0.7000
   Actual Level Shift  :       0.2500 Eh
   DIIS-Error          :       0.479882643372
   DIIS coefficients:
      0.27447   0.69808   0.02745

===> SHARK/Fock/General/Sym: HFTyp=1 DoJ=1 DoX=1 facj= 2.000 facx=-0.500 NFock=1 NumOp=1 NMat=1 RangeSep=0 GeneralContraction=0 PGCOpt=-1
    -> L=0 0 0 0:     0.000 sec done=        44 (= 97.8%) skipped=         1 
    -> L=1 0 0 0:     0.000 sec done=        72 (=100.0%) skipped=         0 
    -> L=1 0 1 0:     0.000 sec done=        36 (=100.0%) skipped=         0 
    -> L=1 1 0 0:     0.000 sec done=        27 (=100.0%) skipped=         0 
    -> L=1 1 1 0:     0.000 sec done=        24 (=100.0%) skipped=         0 
    -> L=1 1 1 1:     0.000 sec done=         6 (=100.0%) skipped=         0 
    -> RHF LowL loop time =     0.001 sec
    ->Total SHARK integral loop time =    0.000 sec
    ->Total LIBINT loop time =    0.000 sec

                         ----------------------------
                         !        ITERATION     5   !
                         ----------------------------
   Total Energy        :    -111.136035824190 Eh
   Energy Change       :       0.010676717602 Eh
   MAX-DP              :       0.013903669682
   RMS-DP              :       0.001974841984
   Actual Damping      :       0.7000
   Actual Level Shift  :       0.2500 Eh
   DIIS-Error          :       0.475643279974
   DIIS coefficients:
      0.24837   0.73574   0.00921   0.00668

===> SHARK/Fock/General/Sym: HFTyp=1 DoJ=1 DoX=1 facj= 2.000 facx=-0.500 NFock=1 NumOp=1 NMat=1 RangeSep=0 GeneralContraction=0 PGCOpt=-1
    -> L=0 0 0 0:     0.000 sec done=        45 (=100.0%) skipped=         0 
    -> L=1 0 0 0:     0.000 sec done=        72 (=100.0%) skipped=         0 
    -> L=1 0 1 0:     0.000 sec done=        36 (=100.0%) skipped=         0 
    -> L=1 1 0 0:     0.000 sec done=        27 (=100.0%) skipped=         0 
    -> L=1 1 1 0:     0.000 sec done=        24 (=100.0%) skipped=         0 
    -> L=1 1 1 1:     0.000 sec done=         6 (=100.0%) skipped=         0 
    -> RHF LowL loop time =     0.001 sec
    ->Total SHARK integral loop time =    0.000 sec
    ->Total LIBINT loop time =    0.000 sec

                         ----------------------------
                         !        ITERATION     6   !
                         ----------------------------
   Total Energy        :    -111.124562214559 Eh
   Energy Change       :       0.011473609631 Eh
   MAX-DP              :       0.011234127132
   RMS-DP              :       0.001587899417
   Actual Damping      :       0.7000
   Actual Level Shift  :       0.2500 Eh
   DIIS-Error          :       0.471121185685
   DIIS coefficients:
      0.22071   0.77657   0.01904   0.01001  -0.02632

===> SHARK/Fock/General/Sym: HFTyp=1 DoJ=1 DoX=1 facj= 2.000 facx=-0.500 NFock=1 NumOp=1 NMat=1 RangeSep=0 GeneralContraction=0 PGCOpt=-1
    -> L=0 0 0 0:     0.000 sec done=        44 (= 97.8%) skipped=         1 
    -> L=1 0 0 0:     0.000 sec done=        72 (=100.0%) skipped=         0 
    -> L=1 0 1 0:     0.000 sec done=        36 (=100.0%) skipped=         0 
    -> L=1 1 0 0:     0.000 sec done=        27 (=100.0%) skipped=         0 
    -> L=1 1 1 0:     0.000 sec done=        24 (=100.0%) skipped=         0 
    -> L=1 1 1 1:     0.000 sec done=         6 (=100.0%) skipped=         0 
    -> RHF LowL loop time =     0.001 sec
    ->Total SHARK integral loop time =    0.000 sec
    ->Total LIBINT loop time =    0.000 sec

                         ----------------------------
                         !        ITERATION     7   !
                         ----------------------------
   Total Energy        :    -111.101730981463 Eh
   Energy Change       :       0.022831233096 Eh
   MAX-DP              :       0.007623557066
   RMS-DP              :       0.001068619500
   Actual Damping      :       0.7000
   Actual Level Shift  :       0.2500 Eh
   DIIS-Error          :       0.467256039568
   DIIS coefficients:
     -0.14796   1.09721   0.02575   0.01723   0.00778

===> SHARK/Fock/General/Sym: HFTyp=1 DoJ=1 DoX=1 facj= 2.000 facx=-0.500 NFock=1 NumOp=1 NMat=1 RangeSep=0 GeneralContraction=0 PGCOpt=-1
    -> L=0 0 0 0:     0.000 sec done=        44 (= 97.8%) skipped=         1 
    -> L=1 0 0 0:     0.000 sec done=        72 (=100.0%) skipped=         0 
    -> L=1 0 1 0:     0.000 sec done=        36 (=100.0%) skipped=         0 
    -> L=1 1 0 0:     0.000 sec done=        27 (=100.0%) skipped=         0 
    -> L=1 1 1 0:     0.000 sec done=        24 (=100.0%) skipped=         0 
    -> L=1 1 1 1:     0.000 sec done=         6 (=100.0%) skipped=         0 
    -> RHF LowL loop time =     0.001 sec
    ->Total SHARK integral loop time =    0.000 sec
    ->Total LIBINT loop time =    0.000 sec

                         ----------------------------
                         !        ITERATION     8   !
                         ----------------------------
   Total Energy        :    -110.631040323671 Eh
   Energy Change       :       0.470690657792 Eh
   MAX-DP              :       0.186734776603
   RMS-DP              :       0.033485650817
   Actual Damping      :       0.7000
   Actual Level Shift  :       0.2500 Eh
   DIIS-Error          :       0.461300987443
   DIIS coefficients:
     -0.26569   3.32415  -0.89742  -0.69444  -0.46659

===> SHARK/Fock/General/Sym: HFTyp=1 DoJ=1 DoX=1 facj= 2.000 facx=-0.500 NFock=1 NumOp=1 NMat=1 RangeSep=0 GeneralContraction=0 PGCOpt=-1
    -> L=0 0 0 0:     0.000 sec done=        45 (=100.0%) skipped=         0 
    -> L=1 0 0 0:     0.000 sec done=        72 (=100.0%) skipped=         0 
    -> L=1 0 1 0:     0.000 sec done=        36 (=100.0%) skipped=         0 
    -> L=1 1 0 0:     0.000 sec done=        27 (=100.0%) skipped=         0 
    -> L=1 1 1 0:     0.000 sec done=        24 (=100.0%) skipped=         0 
    -> L=1 1 1 1:     0.000 sec done=         6 (=100.0%) skipped=         0 
    -> RHF LowL loop time =     0.001 sec
    ->Total SHARK integral loop time =    0.000 sec
    ->Total LIBINT loop time =    0.000 sec

                         ----------------------------
                         !        ITERATION     9   !
                         ----------------------------
   Total Energy        :    -110.760842512868 Eh
   Energy Change       :      -0.129802189197 Eh
   MAX-DP              :       0.094493279604
   RMS-DP              :       0.012897655462
   Actual Damping      :       0.7000
   Actual Level Shift  :       0.2500 Eh
   DIIS-Error          :       0.174228162890
   DIIS coefficients:
     -0.09436  -0.09853   1.33034  -0.05896  -0.07849

===> SHARK/Fock/General/Sym: HFTyp=1 DoJ=1 DoX=1 facj= 2.000 facx=-0.500 NFock=1 NumOp=1 NMat=1 RangeSep=0 GeneralContraction=0 PGCOpt=-1
    -> L=0 0 0 0:     0.000 sec done=        45 (=100.0%) skipped=         0 
    -> L=1 0 0 0:     0.000 sec done=        72 (=100.0%) skipped=         0 
    -> L=1 0 1 0:     0.000 sec done=        36 (=100.0%) skipped=         0 
    -> L=1 1 0 0:     0.000 sec done=        27 (=100.0%) skipped=         0 
    -> L=1 1 1 0:     0.000 sec done=        24 (=100.0%) skipped=         0 
    -> L=1 1 1 1:     0.000 sec done=         6 (=100.0%) skipped=         0 
    -> RHF LowL loop time =     0.001 sec
    ->Total SHARK integral loop time =    0.000 sec
    ->Total LIBINT loop time =    0.000 sec

                         ----------------------------
                         !        ITERATION    10   !
                         ----------------------------
   Total Energy        :    -110.654896917848 Eh
   Energy Change       :       0.105945595021 Eh
   MAX-DP              :       0.058527421278
   RMS-DP              :       0.009087191085
   Actual Damping      :       0.7000
   Actual Level Shift  :       0.2500 Eh
   DIIS-Error          :       0.106940544944
   DIIS coefficients:
     -0.07459  -0.07707   0.77378   0.43716  -0.05929

===> SHARK/Fock/General/Sym: HFTyp=1 DoJ=1 DoX=1 facj= 2.000 facx=-0.500 NFock=1 NumOp=1 NMat=1 RangeSep=0 GeneralContraction=0 PGCOpt=-1
    -> L=0 0 0 0:     0.000 sec done=        45 (=100.0%) skipped=         0 
    -> L=1 0 0 0:     0.000 sec done=        72 (=100.0%) skipped=         0 
    -> L=1 0 1 0:     0.000 sec done=        36 (=100.0%) skipped=         0 
    -> L=1 1 0 0:     0.000 sec done=        27 (=100.0%) skipped=         0 
    -> L=1 1 1 0:     0.000 sec done=        24 (=100.0%) skipped=         0 
    -> L=1 1 1 1:     0.000 sec done=         6 (=100.0%) skipped=         0 
    -> RHF LowL loop time =     0.001 sec
    ->Total SHARK integral loop time =    0.000 sec
    ->Total LIBINT loop time =    0.000 sec

                         ----------------------------
                         !        ITERATION    11   !
                         ----------------------------
   Total Energy        :    -110.639430984099 Eh
   Energy Change       :       0.015465933749 Eh
   MAX-DP              :       0.032578928720
   RMS-DP              :       0.006491547888
   Actual Damping      :       0.7000
   Actual Level Shift  :       0.2500 Eh
   DIIS-Error          :       0.101633070563
   DIIS coefficients:
     -0.12570  -0.12804   0.94076   0.72972  -0.41675

===> SHARK/Fock/General/Sym: HFTyp=1 DoJ=1 DoX=1 facj= 2.000 facx=-0.500 NFock=1 NumOp=1 NMat=1 RangeSep=0 GeneralContraction=0 PGCOpt=-1
    -> L=0 0 0 0:     0.000 sec done=        45 (=100.0%) skipped=         0 
    -> L=1 0 0 0:     0.000 sec done=        72 (=100.0%) skipped=         0 
    -> L=1 0 1 0:     0.000 sec done=        36 (=100.0%) skipped=         0 
    -> L=1 1 0 0:     0.000 sec done=        27 (=100.0%) skipped=         0 
    -> L=1 1 1 0:     0.000 sec done=        24 (=100.0%) skipped=         0 
    -> L=1 1 1 1:     0.000 sec done=         6 (=100.0%) skipped=         0 
    -> RHF LowL loop time =     0.001 sec
    ->Total SHARK integral loop time =    0.000 sec
    ->Total LIBINT loop time =    0.000 sec

                         ----------------------------
                         !        ITERATION    12   !
                         ----------------------------
   Total Energy        :    -110.640661678583 Eh
   Energy Change       :      -0.001230694484 Eh
   MAX-DP              :       0.012245668673
   RMS-DP              :       0.002892212856
   Actual Damping      :       0.7000
   Actual Level Shift  :       0.2500 Eh
   DIIS-Error          :       0.113706149439
   DIIS coefficients:
     -1.16138  -0.21205   0.87778   1.07659   0.41907

===> SHARK/Fock/General/Sym: HFTyp=1 DoJ=1 DoX=1 facj= 2.000 facx=-0.500 NFock=1 NumOp=1 NMat=1 RangeSep=0 GeneralContraction=0 PGCOpt=-1
    -> L=0 0 0 0:     0.000 sec done=        45 (=100.0%) skipped=         0 
    -> L=1 0 0 0:     0.000 sec done=        72 (=100.0%) skipped=         0 
    -> L=1 0 1 0:     0.000 sec done=        36 (=100.0%) skipped=         0 
    -> L=1 1 0 0:     0.000 sec done=        27 (=100.0%) skipped=         0 
    -> L=1 1 1 0:     0.000 sec done=        24 (=100.0%) skipped=         0 
    -> L=1 1 1 1:     0.000 sec done=         6 (=100.0%) skipped=         0 
    -> RHF LowL loop time =     0.001 sec
    ->Total SHARK integral loop time =    0.000 sec
    ->Total LIBINT loop time =    0.000 sec

                         ----------------------------
                         !        ITERATION    13   !
                         ----------------------------
   Total Energy        :    -110.629515350858 Eh
   Energy Change       :       0.011146327724 Eh
   MAX-DP              :       0.014176905507
   RMS-DP              :       0.002072528911
   Actual Damping      :       0.7000
   Actual Level Shift  :       0.2500 Eh
   DIIS-Error          :       0.128386655513
   DIIS coefficients:
      0.42550  -2.39181   0.48301   1.49795   0.98536

===> SHARK/Fock/General/Sym: HFTyp=1 DoJ=1 DoX=1 facj= 2.000 facx=-0.500 NFock=1 NumOp=1 NMat=1 RangeSep=0 GeneralContraction=0 PGCOpt=-1
    -> L=0 0 0 0:     0.000 sec done=        45 (=100.0%) skipped=         0 
    -> L=1 0 0 0:     0.000 sec done=        72 (=100.0%) skipped=         0 
    -> L=1 0 1 0:     0.000 sec done=        36 (=100.0%) skipped=         0 
    -> L=1 1 0 0:     0.000 sec done=        27 (=100.0%) skipped=         0 
    -> L=1 1 1 0:     0.000 sec done=        24 (=100.0%) skipped=         0 
    -> L=1 1 1 1:     0.000 sec done=         6 (=100.0%) skipped=         0 
    -> RHF LowL loop time =     0.001 sec
    ->Total SHARK integral loop time =    0.000 sec
    ->Total LIBINT loop time =    0.000 sec

                         ----------------------------
                         !        ITERATION    14   !
                         ----------------------------
   Total Energy        :    -110.690178244328 Eh
   Energy Change       :      -0.060662893469 Eh
   MAX-DP              :       0.011760713629
   RMS-DP              :       0.002662740502
   Actual Damping      :       0.7000
   Actual Level Shift  :       0.2500 Eh
   DIIS-Error          :       0.136546054628
   DIIS coefficients:
      0.05502  -0.03405  -0.69736   1.30052   0.37586

===> SHARK/Fock/General/Sym: HFTyp=1 DoJ=1 DoX=1 facj= 2.000 facx=-0.500 NFock=1 NumOp=1 NMat=1 RangeSep=0 GeneralContraction=0 PGCOpt=-1
    -> L=0 0 0 0:     0.000 sec done=        44 (= 97.8%) skipped=         1 
    -> L=1 0 0 0:     0.000 sec done=        72 (=100.0%) skipped=         0 
    -> L=1 0 1 0:     0.000 sec done=        36 (=100.0%) skipped=         0 
    -> L=1 1 0 0:     0.000 sec done=        27 (=100.0%) skipped=         0 
    -> L=1 1 1 0:     0.000 sec done=        24 (=100.0%) skipped=         0 
    -> L=1 1 1 1:     0.000 sec done=         6 (=100.0%) skipped=         0 
    -> RHF LowL loop time =     0.001 sec
    ->Total SHARK integral loop time =    0.000 sec
    ->Total LIBINT loop time =    0.000 sec

                         ----------------------------
                         !        ITERATION    15   !
                         ----------------------------
   Total Energy        :    -110.719072099466 Eh
   Energy Change       :      -0.028893855138 Eh
   MAX-DP              :       0.036996816348
   RMS-DP              :       0.006493979521
   Actual Damping      :       0.7000
   Actual Level Shift  :       0.2500 Eh
   DIIS-Error          :       0.143649263209
   DIIS coefficients:
      0.37787   0.17285   0.15743  -0.53970   0.83155

===> SHARK/Fock/General/Sym: HFTyp=1 DoJ=1 DoX=1 facj= 2.000 facx=-0.500 NFock=1 NumOp=1 NMat=1 RangeSep=0 GeneralContraction=0 PGCOpt=-1
    -> L=0 0 0 0:     0.000 sec done=        45 (=100.0%) skipped=         0 
    -> L=1 0 0 0:     0.000 sec done=        72 (=100.0%) skipped=         0 
    -> L=1 0 1 0:     0.000 sec done=        36 (=100.0%) skipped=         0 
    -> L=1 1 0 0:     0.000 sec done=        27 (=100.0%) skipped=         0 
    -> L=1 1 1 0:     0.000 sec done=        24 (=100.0%) skipped=         0 
    -> L=1 1 1 1:     0.000 sec done=         6 (=100.0%) skipped=         0 
    -> RHF LowL loop time =     0.001 sec
    ->Total SHARK integral loop time =    0.000 sec
    ->Total LIBINT loop time =    0.000 sec

                         ----------------------------
                         !        ITERATION    16   !
                         ----------------------------
   Total Energy        :    -110.716436834545 Eh
   Energy Change       :       0.002635264921 Eh
   MAX-DP              :       0.032960330702
   RMS-DP              :       0.005595701761
   Actual Damping      :       0.7000
   Actual Level Shift  :       0.2500 Eh
   DIIS-Error          :       0.145530821760
   DIIS coefficients:
      0.99812   0.58306   0.45650   0.21820  -1.25588

===> SHARK/Fock/General/Sym: HFTyp=1 DoJ=1 DoX=1 facj= 2.000 facx=-0.500 NFock=1 NumOp=1 NMat=1 RangeSep=0 GeneralContraction=0 PGCOpt=-1
    -> L=0 0 0 0:     0.000 sec done=        45 (=100.0%) skipped=         0 
    -> L=1 0 0 0:     0.000 sec done=        72 (=100.0%) skipped=         0 
    -> L=1 0 1 0:     0.000 sec done=        36 (=100.0%) skipped=         0 
    -> L=1 1 0 0:     0.000 sec done=        27 (=100.0%) skipped=         0 
    -> L=1 1 1 0:     0.000 sec done=        24 (=100.0%) skipped=         0 
    -> L=1 1 1 1:     0.000 sec done=         6 (=100.0%) skipped=         0 
    -> RHF LowL loop time =     0.001 sec
    ->Total SHARK integral loop time =    0.000 sec
    ->Total LIBINT loop time =    0.000 sec

                         ----------------------------
                         !        ITERATION    17   !
                         ----------------------------
   Total Energy        :    -110.689691246386 Eh
   Energy Change       :       0.026745588159 Eh
   MAX-DP              :       0.023808679365
   RMS-DP              :       0.003433214782
   Actual Damping      :       0.7000
   Actual Level Shift  :       0.2500 Eh
   DIIS-Error          :       0.144817464347
   DIIS coefficients:
     -1.32833   1.20913   0.75971   0.29780   0.06169

===> SHARK/Fock/General/Sym: HFTyp=1 DoJ=1 DoX=1 facj= 2.000 facx=-0.500 NFock=1 NumOp=1 NMat=1 RangeSep=0 GeneralContraction=0 PGCOpt=-1
    -> L=0 0 0 0:     0.000 sec done=        45 (=100.0%) skipped=         0 
    -> L=1 0 0 0:     0.000 sec done=        72 (=100.0%) skipped=         0 
    -> L=1 0 1 0:     0.000 sec done=        36 (=100.0%) skipped=         0 
    -> L=1 1 0 0:     0.000 sec done=        27 (=100.0%) skipped=         0 
    -> L=1 1 1 0:     0.000 sec done=        24 (=100.0%) skipped=         0 
    -> L=1 1 1 1:     0.000 sec done=         6 (=100.0%) skipped=         0 
    -> RHF LowL loop time =     0.001 sec
    ->Total SHARK integral loop time =    0.000 sec
    ->Total LIBINT loop time =    0.000 sec

                         ----------------------------
                         !        ITERATION    18   !
                         ----------------------------
   Total Energy        :    -110.694428493238 Eh
   Energy Change       :      -0.004737246852 Eh
   MAX-DP              :       0.051545947628
   RMS-DP              :       0.007820644061
   Actual Damping      :       0.7000
   Actual Level Shift  :       0.2500 Eh
   DIIS-Error          :       0.136973296654
   DIIS coefficients:
     -0.36287   1.20124   0.49652  -0.03704  -0.29785

===> SHARK/Fock/General/Sym: HFTyp=1 DoJ=1 DoX=1 facj= 2.000 facx=-0.500 NFock=1 NumOp=1 NMat=1 RangeSep=0 GeneralContraction=0 PGCOpt=-1
    -> L=0 0 0 0:     0.000 sec done=        45 (=100.0%) skipped=         0 
    -> L=1 0 0 0:     0.000 sec done=        72 (=100.0%) skipped=         0 
    -> L=1 0 1 0:     0.000 sec done=        36 (=100.0%) skipped=         0 
    -> L=1 1 0 0:     0.000 sec done=        27 (=100.0%) skipped=         0 
    -> L=1 1 1 0:     0.000 sec done=        24 (=100.0%) skipped=         0 
    -> L=1 1 1 1:     0.000 sec done=         6 (=100.0%) skipped=         0 
    -> RHF LowL loop time =     0.001 sec
    ->Total SHARK integral loop time =    0.000 sec
    ->Total LIBINT loop time =    0.000 sec

                         ----------------------------
                         !        ITERATION    19   !
                         ----------------------------
   Total Energy        :    -110.721838534805 Eh
   Energy Change       :      -0.027410041568 Eh
   MAX-DP              :       0.060187652378
   RMS-DP              :       0.010177464725
   Actual Damping      :       0.7000
   Actual Level Shift  :       0.2500 Eh
   DIIS-Error          :       0.122173167997
   DIIS coefficients:
     -0.29845  -0.26849   1.65232   0.08283  -0.16821

               *** Restarting incremental Fock matrix formation ***
                                   *** Resetting DIIS ***
===> SHARK/Fock/General/Sym: HFTyp=1 DoJ=1 DoX=1 facj= 2.000 facx=-0.500 NFock=1 NumOp=1 NMat=1 RangeSep=0 GeneralContraction=0 PGCOpt=-1
    -> L=0 0 0 0:     0.000 sec done=        45 (=100.0%) skipped=         0 
    -> L=1 0 0 0:     0.000 sec done=        72 (=100.0%) skipped=         0 
    -> L=1 0 1 0:     0.000 sec done=        36 (=100.0%) skipped=         0 
    -> L=1 1 0 0:     0.000 sec done=        27 (=100.0%) skipped=         0 
    -> L=1 1 1 0:     0.000 sec done=        24 (=100.0%) skipped=         0 
    -> L=1 1 1 1:     0.000 sec done=         6 (=100.0%) skipped=         0 
    -> RHF LowL loop time =     0.001 sec
    ->Total SHARK integral loop time =    0.000 sec
    ->Total LIBINT loop time =    0.000 sec

 WARNING: the maximum gradient error descreased on average only by a factor   1.0
          during the last 20 iterations

                      *** Initiating the TRAH-SCF procedure ***

 --------------------------------------------------------------------------------------------
   Iter.        energy            ||Error||_2        Shift      TRadius  Mac/Mic        Rej.
 --------------------------------------------------------------------------------------------
===> SHARK/Fock/General/Sym: HFTyp=1 DoJ=1 DoX=1 facj= 2.000 facx=-0.500 NFock=1 NumOp=1 NMat=1 RangeSep=0 GeneralContraction=0 PGCOpt=-1
    -> L=0 0 0 0:     0.000 sec done=        45 (=100.0%) skipped=         0 
    -> L=1 0 0 0:     0.000 sec done=        72 (=100.0%) skipped=         0 
    -> L=1 0 1 0:     0.000 sec done=        36 (=100.0%) skipped=         0 
    -> L=1 1 0 0:     0.000 sec done=        27 (=100.0%) skipped=         0 
    -> L=1 1 1 0:     0.000 sec done=        24 (=100.0%) skipped=         0 
    -> L=1 1 1 1:     0.000 sec done=         6 (=100.0%) skipped=         0 
    -> RHF LowL loop time =     0.001 sec
    ->Total SHARK integral loop time =    0.000 sec
    ->Total LIBINT loop time =    0.000 sec
    0       -110.752029706480     2.446845e-01                     0.400 (TRAH MAcro)   No
===> SHARK/Fock/General/Sym: HFTyp=1 DoJ=1 DoX=1 facj= 2.000 facx=-0.500 NFock=1 NumOp=1 NMat=1 RangeSep=0 GeneralContraction=0 PGCOpt=-1
    -> L=0 0 0 0:     0.000 sec done=        45 (=100.0%) skipped=         0 
    -> L=1 0 0 0:     0.000 sec done=        72 (=100.0%) skipped=         0 
    -> L=1 0 1 0:     0.000 sec done=        36 (=100.0%) skipped=         0 
    -> L=1 1 0 0:     0.000 sec done=        27 (=100.0%) skipped=         0 
    -> L=1 1 1 0:     0.000 sec done=        24 (=100.0%) skipped=         0 
    -> L=1 1 1 1:     0.000 sec done=         6 (=100.0%) skipped=         0 
    -> RHF LowL loop time =     0.001 sec
    ->Total SHARK integral loop time =    0.000 sec
    ->Total LIBINT loop time =    0.000 sec
===> SHARK/Fock/General/Sym: HFTyp=1 DoJ=1 DoX=1 facj= 2.000 facx=-0.500 NFock=1 NumOp=1 NMat=1 RangeSep=0 GeneralContraction=0 PGCOpt=-1
    -> L=0 0 0 0:     0.000 sec done=        45 (=100.0%) skipped=         0 
    -> L=1 0 0 0:     0.000 sec done=        72 (=100.0%) skipped=         0 
    -> L=1 0 1 0:     0.000 sec done=        36 (=100.0%) skipped=         0 
    -> L=1 1 0 0:     0.000 sec done=        27 (=100.0%) skipped=         0 
    -> L=1 1 1 0:     0.000 sec done=        24 (=100.0%) skipped=         0 
    -> L=1 1 1 1:     0.000 sec done=         6 (=100.0%) skipped=         0 
    -> RHF LowL loop time =     0.001 sec
    ->Total SHARK integral loop time =    0.000 sec
    ->Total LIBINT loop time =    0.000 sec
    0     dE    -5.641655e-02     2.635711e-01    -9.7396e-02      0.398 (TRAH MIcro)
===> SHARK/Fock/General/Sym: HFTyp=1 DoJ=1 DoX=1 facj= 2.000 facx=-0.500 NFock=1 NumOp=1 NMat=1 RangeSep=0 GeneralContraction=0 PGCOpt=-1
    -> L=0 0 0 0:     0.000 sec done=        45 (=100.0%) skipped=         0 
    -> L=1 0 0 0:     0.000 sec done=        72 (=100.0%) skipped=         0 
    -> L=1 0 1 0:     0.000 sec done=        36 (=100.0%) skipped=         0 
    -> L=1 1 0 0:     0.000 sec done=        27 (=100.0%) skipped=         0 
    -> L=1 1 1 0:     0.000 sec done=        24 (=100.0%) skipped=         0 
    -> L=1 1 1 1:     0.000 sec done=         6 (=100.0%) skipped=         0 
    -> RHF LowL loop time =     0.001 sec
    ->Total SHARK integral loop time =    0.000 sec
    ->Total LIBINT loop time =    0.000 sec
    0     dE    -5.892077e-02     1.127490e-01    -1.2692e-01      0.400 (TRAH MIcro)
===> SHARK/Fock/General/Sym: HFTyp=1 DoJ=1 DoX=1 facj= 2.000 facx=-0.500 NFock=1 NumOp=1 NMat=1 RangeSep=0 GeneralContraction=0 PGCOpt=-1
    -> L=0 0 0 0:     0.000 sec done=        45 (=100.0%) skipped=         0 
    -> L=1 0 0 0:     0.000 sec done=        72 (=100.0%) skipped=         0 
    -> L=1 0 1 0:     0.000 sec done=        36 (=100.0%) skipped=         0 
    -> L=1 1 0 0:     0.000 sec done=        27 (=100.0%) skipped=         0 
    -> L=1 1 1 0:     0.000 sec done=        24 (=100.0%) skipped=         0 
    -> L=1 1 1 1:     0.000 sec done=         6 (=100.0%) skipped=         0 
    -> RHF LowL loop time =     0.001 sec
    ->Total SHARK integral loop time =    0.000 sec
    ->Total LIBINT loop time =    0.000 sec
    0     dE    -5.909998e-02     1.195280e-02    -1.2903e-01      0.400 (TRAH MIcro)
===> SHARK/Fock/General/Sym: HFTyp=1 DoJ=1 DoX=1 facj= 2.000 facx=-0.500 NFock=1 NumOp=1 NMat=1 RangeSep=0 GeneralContraction=0 PGCOpt=-1
    -> L=0 0 0 0:     0.000 sec done=        45 (=100.0%) skipped=         0 
    -> L=1 0 0 0:     0.000 sec done=        72 (=100.0%) skipped=         0 
    -> L=1 0 1 0:     0.000 sec done=        36 (=100.0%) skipped=         0 
    -> L=1 1 0 0:     0.000 sec done=        27 (=100.0%) skipped=         0 
    -> L=1 1 1 0:     0.000 sec done=        24 (=100.0%) skipped=         0 
    -> L=1 1 1 1:     0.000 sec done=         6 (=100.0%) skipped=         0 
    -> RHF LowL loop time =     0.001 sec
    ->Total SHARK integral loop time =    0.000 sec
    ->Total LIBINT loop time =    0.000 sec
    0     dE    -5.910207e-02     8.543229e-04    -1.2909e-01      0.400 (TRAH MIcro)
===> SHARK/Fock/General/Sym: HFTyp=1 DoJ=1 DoX=1 facj= 2.000 facx=-0.500 NFock=1 NumOp=1 NMat=1 RangeSep=0 GeneralContraction=0 PGCOpt=-1
    -> L=0 0 0 0:     0.000 sec done=        45 (=100.0%) skipped=         0 
    -> L=1 0 0 0:     0.000 sec done=        72 (=100.0%) skipped=         0 
    -> L=1 0 1 0:     0.000 sec done=        36 (=100.0%) skipped=         0 
    -> L=1 1 0 0:     0.000 sec done=        27 (=100.0%) skipped=         0 
    -> L=1 1 1 0:     0.000 sec done=        24 (=100.0%) skipped=         0 
    -> L=1 1 1 1:     0.000 sec done=         6 (=100.0%) skipped=         0 
    -> RHF LowL loop time =     0.001 sec
    ->Total SHARK integral loop time =    0.000 sec
    ->Total LIBINT loop time =    0.000 sec
    1       -110.785224274161     1.507089e-01                     0.400 (TRAH MAcro)   No
===> SHARK/Fock/General/Sym: HFTyp=1 DoJ=1 DoX=1 facj= 2.000 facx=-0.500 NFock=1 NumOp=1 NMat=1 RangeSep=0 GeneralContraction=0 PGCOpt=-1
    -> L=0 0 0 0:     0.000 sec done=        45 (=100.0%) skipped=         0 
    -> L=1 0 0 0:     0.000 sec done=        72 (=100.0%) skipped=         0 
    -> L=1 0 1 0:     0.000 sec done=        36 (=100.0%) skipped=         0 
    -> L=1 1 0 0:     0.000 sec done=        27 (=100.0%) skipped=         0 
    -> L=1 1 1 0:     0.000 sec done=        24 (=100.0%) skipped=         0 
    -> L=1 1 1 1:     0.000 sec done=         6 (=100.0%) skipped=         0 
    -> RHF LowL loop time =     0.001 sec
    ->Total SHARK integral loop time =    0.000 sec
    ->Total LIBINT loop time =    0.000 sec
===> SHARK/Fock/General/Sym: HFTyp=1 DoJ=1 DoX=1 facj= 2.000 facx=-0.500 NFock=1 NumOp=1 NMat=1 RangeSep=0 GeneralContraction=0 PGCOpt=-1
    -> L=0 0 0 0:     0.000 sec done=        45 (=100.0%) skipped=         0 
    -> L=1 0 0 0:     0.000 sec done=        72 (=100.0%) skipped=         0 
    -> L=1 0 1 0:     0.000 sec done=        36 (=100.0%) skipped=         0 
    -> L=1 1 0 0:     0.000 sec done=        27 (=100.0%) skipped=         0 
    -> L=1 1 1 0:     0.000 sec done=        24 (=100.0%) skipped=         0 
    -> L=1 1 1 1:     0.000 sec done=         6 (=100.0%) skipped=         0 
    -> RHF LowL loop time =     0.001 sec
    ->Total SHARK integral loop time =    0.000 sec
    ->Total LIBINT loop time =    0.000 sec
    1     dE    -6.756984e-03     2.946731e-01    -1.3408e-02      0.089 (TRAH MIcro)
===> SHARK/Fock/General/Sym: HFTyp=1 DoJ=1 DoX=1 facj= 2.000 facx=-0.500 NFock=1 NumOp=1 NMat=1 RangeSep=0 GeneralContraction=0 PGCOpt=-1
    -> L=0 0 0 0:     0.000 sec done=        45 (=100.0%) skipped=         0 
    -> L=1 0 0 0:     0.000 sec done=        72 (=100.0%) skipped=         0 
    -> L=1 0 1 0:     0.000 sec done=        36 (=100.0%) skipped=         0 
    -> L=1 1 0 0:     0.000 sec done=        27 (=100.0%) skipped=         0 
    -> L=1 1 1 0:     0.000 sec done=        24 (=100.0%) skipped=         0 
    -> L=1 1 1 1:     0.000 sec done=         6 (=100.0%) skipped=         0 
    -> RHF LowL loop time =     0.001 sec
    ->Total SHARK integral loop time =    0.000 sec
    ->Total LIBINT loop time =    0.000 sec
    1     dE    -7.652431e-03     1.418255e-02    -1.5150e-02      0.101 (TRAH MIcro)
===> SHARK/Fock/General/Sym: HFTyp=1 DoJ=1 DoX=1 facj= 2.000 facx=-0.500 NFock=1 NumOp=1 NMat=1 RangeSep=0 GeneralContraction=0 PGCOpt=-1
    -> L=0 0 0 0:     0.000 sec done=        45 (=100.0%) skipped=         0 
    -> L=1 0 0 0:     0.000 sec done=        72 (=100.0%) skipped=         0 
    -> L=1 0 1 0:     0.000 sec done=        36 (=100.0%) skipped=         0 
    -> L=1 1 0 0:     0.000 sec done=        27 (=100.0%) skipped=         0 
    -> L=1 1 1 0:     0.000 sec done=        24 (=100.0%) skipped=         0 
    -> L=1 1 1 1:     0.000 sec done=         6 (=100.0%) skipped=         0 
    -> RHF LowL loop time =     0.001 sec
    ->Total SHARK integral loop time =    0.000 sec
    ->Total LIBINT loop time =    0.000 sec
    1     dE    -7.668732e-03     1.831611e-03    -1.5180e-02      0.102 (TRAH MIcro)
===> SHARK/Fock/General/Sym: HFTyp=1 DoJ=1 DoX=1 facj= 2.000 facx=-0.500 NFock=1 NumOp=1 NMat=1 RangeSep=0 GeneralContraction=0 PGCOpt=-1
    -> L=0 0 0 0:     0.000 sec done=        45 (=100.0%) skipped=         0 
    -> L=1 0 0 0:     0.000 sec done=        72 (=100.0%) skipped=         0 
    -> L=1 0 1 0:     0.000 sec done=        36 (=100.0%) skipped=         0 
    -> L=1 1 0 0:     0.000 sec done=        27 (=100.0%) skipped=         0 
    -> L=1 1 1 0:     0.000 sec done=        24 (=100.0%) skipped=         0 
    -> L=1 1 1 1:     0.000 sec done=         6 (=100.0%) skipped=         0 
    -> RHF LowL loop time =     0.001 sec
    ->Total SHARK integral loop time =    0.000 sec
    ->Total LIBINT loop time =    0.000 sec
    2       -110.792793078903     1.811845e-02                     0.480 (TRAH MAcro)   No
===> SHARK/Fock/General/Sym: HFTyp=1 DoJ=1 DoX=1 facj= 2.000 facx=-0.500 NFock=1 NumOp=1 NMat=1 RangeSep=0 GeneralContraction=0 PGCOpt=-1
    -> L=0 0 0 0:     0.000 sec done=        45 (=100.0%) skipped=         0 
    -> L=1 0 0 0:     0.000 sec done=        72 (=100.0%) skipped=         0 
    -> L=1 0 1 0:     0.000 sec done=        36 (=100.0%) skipped=         0 
    -> L=1 1 0 0:     0.000 sec done=        27 (=100.0%) skipped=         0 
    -> L=1 1 1 0:     0.000 sec done=        24 (=100.0%) skipped=         0 
    -> L=1 1 1 1:     0.000 sec done=         6 (=100.0%) skipped=         0 
    -> RHF LowL loop time =     0.001 sec
    ->Total SHARK integral loop time =    0.000 sec
    ->Total LIBINT loop time =    0.000 sec
===> SHARK/Fock/General/Sym: HFTyp=1 DoJ=1 DoX=1 facj= 2.000 facx=-0.500 NFock=1 NumOp=1 NMat=1 RangeSep=0 GeneralContraction=0 PGCOpt=-1
    -> L=0 0 0 0:     0.000 sec done=        45 (=100.0%) skipped=         0 
    -> L=1 0 0 0:     0.000 sec done=        72 (=100.0%) skipped=         0 
    -> L=1 0 1 0:     0.000 sec done=        36 (=100.0%) skipped=         0 
    -> L=1 1 0 0:     0.000 sec done=        27 (=100.0%) skipped=         0 
    -> L=1 1 1 0:     0.000 sec done=        24 (=100.0%) skipped=         0 
    -> L=1 1 1 1:     0.000 sec done=         6 (=100.0%) skipped=         0 
    -> RHF LowL loop time =     0.001 sec
    ->Total SHARK integral loop time =    0.000 sec
    ->Total LIBINT loop time =    0.000 sec
    2     dE    -6.543231e-05     4.708643e-02    -1.3086e-04      0.008 (TRAH MIcro)
===> SHARK/Fock/General/Sym: HFTyp=1 DoJ=1 DoX=1 facj= 2.000 facx=-0.500 NFock=1 NumOp=1 NMat=1 RangeSep=0 GeneralContraction=0 PGCOpt=-1
    -> L=0 0 0 0:     0.000 sec done=        45 (=100.0%) skipped=         0 
    -> L=1 0 0 0:     0.000 sec done=        72 (=100.0%) skipped=         0 
    -> L=1 0 1 0:     0.000 sec done=        36 (=100.0%) skipped=         0 
    -> L=1 1 0 0:     0.000 sec done=        27 (=100.0%) skipped=         0 
    -> L=1 1 1 0:     0.000 sec done=        24 (=100.0%) skipped=         0 
    -> L=1 1 1 1:     0.000 sec done=         6 (=100.0%) skipped=         0 
    -> RHF LowL loop time =     0.001 sec
    ->Total SHARK integral loop time =    0.000 sec
    ->Total LIBINT loop time =    0.000 sec
    2     dE    -9.472373e-05     5.963183e-03    -1.8943e-04      0.011 (TRAH MIcro)
===> SHARK/Fock/General/Sym: HFTyp=1 DoJ=1 DoX=1 facj= 2.000 facx=-0.500 NFock=1 NumOp=1 NMat=1 RangeSep=0 GeneralContraction=0 PGCOpt=-1
    -> L=0 0 0 0:     0.000 sec done=        45 (=100.0%) skipped=         0 
    -> L=1 0 0 0:     0.000 sec done=        72 (=100.0%) skipped=         0 
    -> L=1 0 1 0:     0.000 sec done=        36 (=100.0%) skipped=         0 
    -> L=1 1 0 0:     0.000 sec done=        27 (=100.0%) skipped=         0 
    -> L=1 1 1 0:     0.000 sec done=        24 (=100.0%) skipped=         0 
    -> L=1 1 1 1:     0.000 sec done=         6 (=100.0%) skipped=         0 
    -> RHF LowL loop time =     0.001 sec
    ->Total SHARK integral loop time =    0.000 sec
    ->Total LIBINT loop time =    0.000 sec
    2     dE    -9.698326e-05     8.406385e-04    -1.9394e-04      0.011 (TRAH MIcro)
===> SHARK/Fock/General/Sym: HFTyp=1 DoJ=1 DoX=1 facj= 2.000 facx=-0.500 NFock=1 NumOp=1 NMat=1 RangeSep=0 GeneralContraction=0 PGCOpt=-1
    -> L=0 0 0 0:     0.000 sec done=        45 (=100.0%) skipped=         0 
    -> L=1 0 0 0:     0.000 sec done=        72 (=100.0%) skipped=         0 
    -> L=1 0 1 0:     0.000 sec done=        36 (=100.0%) skipped=         0 
    -> L=1 1 0 0:     0.000 sec done=        27 (=100.0%) skipped=         0 
    -> L=1 1 1 0:     0.000 sec done=        24 (=100.0%) skipped=         0 
    -> L=1 1 1 1:     0.000 sec done=         6 (=100.0%) skipped=         0 
    -> RHF LowL loop time =     0.001 sec
    ->Total SHARK integral loop time =    0.000 sec
    ->Total LIBINT loop time =    0.000 sec
    3       -110.792888698932     9.136875e-04                           (NR   MAcro)
===> SHARK/Fock/General/Sym: HFTyp=1 DoJ=1 DoX=1 facj= 2.000 facx=-0.500 NFock=1 NumOp=1 NMat=1 RangeSep=0 GeneralContraction=0 PGCOpt=-1
    -> L=0 0 0 0:     0.000 sec done=        45 (=100.0%) skipped=         0 
    -> L=1 0 0 0:     0.000 sec done=        72 (=100.0%) skipped=         0 
    -> L=1 0 1 0:     0.000 sec done=        36 (=100.0%) skipped=         0 
    -> L=1 1 0 0:     0.000 sec done=        27 (=100.0%) skipped=         0 
    -> L=1 1 1 0:     0.000 sec done=        24 (=100.0%) skipped=         0 
    -> L=1 1 1 1:     0.000 sec done=         6 (=100.0%) skipped=         0 
    -> RHF LowL loop time =     0.001 sec
    ->Total SHARK integral loop time =    0.000 sec
    ->Total LIBINT loop time =    0.000 sec
    3     dE    -5.112329e-08     2.267280e-04                           (NR   MIcro)
===> SHARK/Fock/General/Sym: HFTyp=1 DoJ=1 DoX=1 facj= 2.000 facx=-0.500 NFock=1 NumOp=1 NMat=1 RangeSep=0 GeneralContraction=0 PGCOpt=-1
    -> L=0 0 0 0:     0.000 sec done=        45 (=100.0%) skipped=         0 
    -> L=1 0 0 0:     0.000 sec done=        72 (=100.0%) skipped=         0 
    -> L=1 0 1 0:     0.000 sec done=        36 (=100.0%) skipped=         0 
    -> L=1 1 0 0:     0.000 sec done=        27 (=100.0%) skipped=         0 
    -> L=1 1 1 0:     0.000 sec done=        24 (=100.0%) skipped=         0 
    -> L=1 1 1 1:     0.000 sec done=         6 (=100.0%) skipped=         0 
    -> RHF LowL loop time =     0.001 sec
    ->Total SHARK integral loop time =    0.000 sec
    ->Total LIBINT loop time =    0.000 sec
    3     dE    -6.437953e-08     1.857335e-04                           (NR   MIcro)
===> SHARK/Fock/General/Sym: HFTyp=1 DoJ=1 DoX=1 facj= 2.000 facx=-0.500 NFock=1 NumOp=1 NMat=1 RangeSep=0 GeneralContraction=0 PGCOpt=-1
    -> L=0 0 0 0:     0.000 sec done=        45 (=100.0%) skipped=         0 
    -> L=1 0 0 0:     0.000 sec done=        72 (=100.0%) skipped=         0 
    -> L=1 0 1 0:     0.000 sec done=        36 (=100.0%) skipped=         0 
    -> L=1 1 0 0:     0.000 sec done=        27 (=100.0%) skipped=         0 
    -> L=1 1 1 0:     0.000 sec done=        24 (=100.0%) skipped=         0 
    -> L=1 1 1 1:     0.000 sec done=         6 (=100.0%) skipped=         0 
    -> RHF LowL loop time =     0.001 sec
    ->Total SHARK integral loop time =    0.000 sec
    ->Total LIBINT loop time =    0.000 sec
    3     dE    -7.854651e-08     3.438801e-04                           (NR   MIcro)
===> SHARK/Fock/General/Sym: HFTyp=1 DoJ=1 DoX=1 facj= 2.000 facx=-0.500 NFock=1 NumOp=1 NMat=1 RangeSep=0 GeneralContraction=0 PGCOpt=-1
    -> L=0 0 0 0:     0.000 sec done=        45 (=100.0%) skipped=         0 
    -> L=1 0 0 0:     0.000 sec done=        72 (=100.0%) skipped=         0 
    -> L=1 0 1 0:     0.000 sec done=        36 (=100.0%) skipped=         0 
    -> L=1 1 0 0:     0.000 sec done=        27 (=100.0%) skipped=         0 
    -> L=1 1 1 0:     0.000 sec done=        24 (=100.0%) skipped=         0 
    -> L=1 1 1 1:     0.000 sec done=         6 (=100.0%) skipped=         0 
    -> RHF LowL loop time =     0.001 sec
    ->Total SHARK integral loop time =    0.000 sec
    ->Total LIBINT loop time =    0.000 sec
    3     dE    -8.124285e-08     1.045846e-04                           (NR   MIcro)
===> SHARK/Fock/General/Sym: HFTyp=1 DoJ=1 DoX=1 facj= 2.000 facx=-0.500 NFock=1 NumOp=1 NMat=1 RangeSep=0 GeneralContraction=0 PGCOpt=-1
    -> L=0 0 0 0:     0.000 sec done=        45 (=100.0%) skipped=         0 
    -> L=1 0 0 0:     0.000 sec done=        72 (=100.0%) skipped=         0 
    -> L=1 0 1 0:     0.000 sec done=        36 (=100.0%) skipped=         0 
    -> L=1 1 0 0:     0.000 sec done=        27 (=100.0%) skipped=         0 
    -> L=1 1 1 0:     0.000 sec done=        24 (=100.0%) skipped=         0 
    -> L=1 1 1 1:     0.000 sec done=         6 (=100.0%) skipped=         0 
    -> RHF LowL loop time =     0.001 sec
    ->Total SHARK integral loop time =    0.000 sec
    ->Total LIBINT loop time =    0.000 sec
    3     dE    -8.432067e-08     2.713981e-04                           (NR   MIcro)
===> SHARK/Fock/General/Sym: HFTyp=1 DoJ=1 DoX=1 facj= 2.000 facx=-0.500 NFock=1 NumOp=1 NMat=1 RangeSep=0 GeneralContraction=0 PGCOpt=-1
    -> L=0 0 0 0:     0.000 sec done=        45 (=100.0%) skipped=         0 
    -> L=1 0 0 0:     0.000 sec done=        72 (=100.0%) skipped=         0 
    -> L=1 0 1 0:     0.000 sec done=        36 (=100.0%) skipped=         0 
    -> L=1 1 0 0:     0.000 sec done=        27 (=100.0%) skipped=         0 
    -> L=1 1 1 0:     0.000 sec done=        24 (=100.0%) skipped=         0 
    -> L=1 1 1 1:     0.000 sec done=         6 (=100.0%) skipped=         0 
    -> RHF LowL loop time =     0.001 sec
    ->Total SHARK integral loop time =    0.000 sec
    ->Total LIBINT loop time =    0.000 sec
    3     dE    -9.163294e-08     4.024078e-05                           (NR   MIcro)
===> SHARK/Fock/General/Sym: HFTyp=1 DoJ=1 DoX=1 facj= 2.000 facx=-0.500 NFock=1 NumOp=1 NMat=1 RangeSep=0 GeneralContraction=0 PGCOpt=-1
    -> L=0 0 0 0:     0.000 sec done=        45 (=100.0%) skipped=         0 
    -> L=1 0 0 0:     0.000 sec done=        72 (=100.0%) skipped=         0 
    -> L=1 0 1 0:     0.000 sec done=        36 (=100.0%) skipped=         0 
    -> L=1 1 0 0:     0.000 sec done=        27 (=100.0%) skipped=         0 
    -> L=1 1 1 0:     0.000 sec done=        24 (=100.0%) skipped=         0 
    -> L=1 1 1 1:     0.000 sec done=         6 (=100.0%) skipped=         0 
    -> RHF LowL loop time =     0.001 sec
    ->Total SHARK integral loop time =    0.000 sec
    ->Total LIBINT loop time =    0.000 sec
    3     dE    -9.169442e-08     1.096656e-05                           (NR   MIcro)
===> SHARK/Fock/General/Sym: HFTyp=1 DoJ=1 DoX=1 facj= 2.000 facx=-0.500 NFock=1 NumOp=1 NMat=1 RangeSep=0 GeneralContraction=0 PGCOpt=-1
    -> L=0 0 0 0:     0.000 sec done=        45 (=100.0%) skipped=         0 
    -> L=1 0 0 0:     0.000 sec done=        72 (=100.0%) skipped=         0 
    -> L=1 0 1 0:     0.000 sec done=        36 (=100.0%) skipped=         0 
    -> L=1 1 0 0:     0.000 sec done=        27 (=100.0%) skipped=         0 
    -> L=1 1 1 0:     0.000 sec done=        24 (=100.0%) skipped=         0 
    -> L=1 1 1 1:     0.000 sec done=         6 (=100.0%) skipped=         0 
    -> RHF LowL loop time =     0.001 sec
    ->Total SHARK integral loop time =    0.000 sec
    ->Total LIBINT loop time =    0.000 sec
    3     dE    -9.169779e-08     1.601641e-06                           (NR   MIcro)
===> SHARK/Fock/General/Sym: HFTyp=1 DoJ=1 DoX=1 facj= 2.000 facx=-0.500 NFock=1 NumOp=1 NMat=1 RangeSep=0 GeneralContraction=0 PGCOpt=-1
    -> L=0 0 0 0:     0.000 sec done=        45 (=100.0%) skipped=         0 
    -> L=1 0 0 0:     0.000 sec done=        72 (=100.0%) skipped=         0 
    -> L=1 0 1 0:     0.000 sec done=        36 (=100.0%) skipped=         0 
    -> L=1 1 0 0:     0.000 sec done=        27 (=100.0%) skipped=         0 
    -> L=1 1 1 0:     0.000 sec done=        24 (=100.0%) skipped=         0 
    -> L=1 1 1 1:     0.000 sec done=         6 (=100.0%) skipped=         0 
    -> RHF LowL loop time =     0.001 sec
    ->Total SHARK integral loop time =    0.000 sec
    ->Total LIBINT loop time =    0.000 sec
    4       -110.792888790609     1.648464e-06                           (NR   MAcro)

               *****************************************************
               *                     SUCCESS                       *
               *           SCF CONVERGED AFTER  43 CYCLES          *
               *****************************************************


----------------
TOTAL SCF ENERGY
----------------

Total Energy       :         -110.79288879 Eh           -3014.82777 eV

Components:
Nuclear Repulsion  :           11.91393340 Eh             324.19461 eV
Electronic Energy  :         -122.70682219 Eh           -3339.02238 eV
One Electron Energy:         -177.79606250 Eh           -4838.07682 eV
Two Electron Energy:           55.08924032 Eh            1499.05444 eV

Virial components:
Potential Energy   :         -222.13712155 Eh           -6044.65838 eV
Kinetic Energy     :          111.34423276 Eh            3029.83061 eV
Virial Ratio       :            1.99504829


---------------
SCF CONVERGENCE
---------------

  Last Energy change         ...   -9.1677e-08  Tolerance :   1.0000e-06
  Last Orbital Gradient      ...    1.6485e-06  Tolerance :   5.0000e-05
  Last Orbital Rotation      ...    1.0700e-03

             **** THE GBW FILE WAS UPDATED (co.gbw) ****
             **** DENSITY co.scfp WAS UPDATED ****
             **** ENERGY FILE WAS UPDATED (co.en.tmp) ****
             **** THE GBW FILE WAS UPDATED (co.gbw) ****
             **** DENSITY co.scfp WAS UPDATED ****
----------------
ORBITAL ENERGIES
----------------

  NO   OCC          E(Eh)            E(eV) 
   0   2.0000     -20.154164      -548.4227 
   1   2.0000     -11.027196      -300.0653 
   2   2.0000      -1.046895       -28.4875 
   3   2.0000      -0.660146       -17.9635 
   4   2.0000      -0.317477        -8.6390 
   5   2.0000      -0.317477        -8.6390 
   6   2.0000      -0.285434        -7.7670 
   7   0.0000       0.202927         5.5219 
   8   0.0000       0.202927         5.5219 
   9   0.0000       0.345579         9.4037 
------------------
MOLECULAR ORBITALS
------------------
                      0         1         2         3         4         5   
                 -20.15416 -11.02720  -1.04690  -0.66015  -0.31748  -0.31748
                   2.00000   2.00000   2.00000   2.00000   2.00000   2.00000
                  --------  --------  --------  --------  --------  --------
  0C   1s         0.000192  0.994216 -0.028382 -0.274861 -0.000000  0.000000
  0C   2s        -0.000895  0.022365  0.101536  1.021000  0.000000 -0.000000
  0C   1pz       -0.001217  0.000520  0.060218 -0.005462 -0.000001  0.000000
  0C   1px        0.000000 -0.000000 -0.000000 -0.000000  0.062719 -0.031743
  0C   1py        0.000000  0.000000  0.000000  0.000000  0.031743  0.062720
  1O   1s         0.994945  0.000230 -0.259215  0.038685 -0.000000  0.000000
  1O   2s         0.020565 -0.001156  1.009738 -0.164684  0.000000 -0.000000
  1O   1pz       -0.000403  0.001095 -0.000258 -0.069815  0.000001 -0.000000
  1O   1px       -0.000000  0.000000 -0.000000 -0.000000  0.888504 -0.449680
  1O   1py       -0.000000 -0.000000 -0.000000 -0.000000  0.449680  0.888504
                      6         7         8         9   
                  -0.28543   0.20293   0.20293   0.34558
                   2.00000   0.00000   0.00000   0.00000
                  --------  --------  --------  --------
  0C   1s        -0.009367 -0.000000  0.000000  0.037774
  0C   2s         0.037405  0.000000 -0.000000 -0.149447
  0C   1pz       -0.950053 -0.000000  0.000001 -0.341764
  0C   1px       -0.000001  0.450586 -0.890294  0.000001
  0C   1py       -0.000000 -0.890294 -0.450586  0.000000
  1O   1s        -0.032266 -0.000000  0.000000 -0.013820
  1O   2s         0.151909  0.000000 -0.000000  0.064643
  1O   1pz        0.231033  0.000000 -0.000001 -0.980378
  1O   1px       -0.000001 -0.042700  0.084368  0.000001
  1O   1py       -0.000000  0.084368  0.042700  0.000000


-------
DENSITY
-------
                  0          1          2          3          4          5    
      0       2.129813  -0.523259   0.018414   0.000000   0.000000  -0.005107
      1      -0.523259   2.109302  -0.069972  -0.000000  -0.000000   0.022172
      2       0.018414  -0.069972   1.812518   0.000003   0.000001   0.027247
      3       0.000000  -0.000000   0.000003   0.009883  -0.000000   0.000000
      4       0.000000  -0.000000   0.000001  -0.000000   0.009883   0.000000
      5      -0.005107   0.022172   0.027247   0.000000   0.000000   2.119292
      6       0.028077  -0.119959  -0.165288  -0.000000   0.000000  -0.505101
      7       0.036243  -0.125281  -0.438253  -0.000001  -0.000000  -0.020978
      8      -0.000000   0.000000   0.000000   0.140001  -0.000000   0.000000
      9      -0.000000   0.000000   0.000000  -0.000000   0.140001   0.000000
                  6          7          8          9    
      0       0.028077   0.036243  -0.000000  -0.000000
      1      -0.119959  -0.125281   0.000000   0.000000
      2      -0.165288  -0.438253   0.000000   0.000000
      3      -0.000000  -0.000001   0.140001  -0.000000
      4       0.000000  -0.000000  -0.000000   0.140001
      5      -0.505101  -0.020978   0.000000   0.000000
      6       2.140385   0.092646  -0.000000  -0.000000
      7       0.092646   0.116503   0.000001   0.000000
      8      -0.000000   0.000001   1.983303   0.000000
      9      -0.000000   0.000000   0.000000   1.983303



                    ********************************
                    * MULLIKEN POPULATION ANALYSIS *
                    ********************************

-----------------------
MULLIKEN ATOMIC CHARGES
-----------------------
   0 C :    0.146092
   1 O :   -0.146092
Sum of atomic charges:   -0.0000000

------------------------
MULLIKEN ORBITAL CHARGES
------------------------
The uncorrected charge=density diagonal is given in parenthesis)
   0:   0C   1s           1.999808 (  2.129813)
   1:   0C   2s           1.981758 (  2.109302)
   2:   0C   1pz          1.845762 (  1.812518)
   3:   0C   1px          0.013290 (  0.009883)
   4:   0C   1py          0.013290 (  0.009883)
   5:   1O   1s           1.999969 (  2.119292)
   6:   1O   2s           1.997525 (  2.140385)
   7:   1O   1pz          0.175177 (  0.116503)
   8:   1O   1px          1.986710 (  1.983303)
   9:   1O   1py          1.986710 (  1.983303)
Sum of orbital charges :   14.0000000

--------------------------------
MULLIKEN REDUCED ORBITAL CHARGES
--------------------------------
  0 C s       :     3.981566  s :     3.981566
      pz      :     1.845762  p :     1.872342
      px      :     0.013290
      py      :     0.013290
  1 O s       :     3.997494  s :     3.997494
      pz      :     0.175177  p :     4.148597
      px      :     1.986710
      py      :     1.986710

------------------------
MULLIKEN OVERLAP CHARGES
------------------------
B(  0-C ,  1-O ) :   0.0849 

-----------------------------------
MULLIKEN ORBITAL POPULATIONS PER MO
-----------------------------------
THRESHOLD FOR PRINTING IS 0.1%
                      0         1         2         3         4         5   
                 -20.15416 -11.02720  -1.04690  -0.66015  -0.31748  -0.31748
                   2.00000   2.00000   2.00000   2.00000   2.00000   2.00000
                  --------  --------  --------  --------  --------  --------
  0C   1s             -0.0      99.4       0.0       0.6       0.0       0.0
  0C   2s             -0.0       0.6       1.6      96.8       0.0       0.0
  0C   1pz            -0.0       0.0       0.9       0.0       0.0       0.0
  0C   1px             0.0       0.0       0.0       0.0       0.5       0.1
  0C   1py             0.0       0.0       0.0       0.0       0.1       0.5
  1O   1s             99.5       0.0       0.5       0.0       0.0       0.0
  1O   2s              0.5      -0.0      97.0       1.6       0.0       0.0
  1O   1pz             0.0      -0.0       0.0       1.0       0.0       0.0
  1O   1px             0.0       0.0       0.0       0.0      79.1      20.3
  1O   1py             0.0       0.0       0.0       0.0      20.3      79.1

                      6         7         8         9   
                  -0.28543   0.20293   0.20293   0.34558
                   2.00000   0.00000   0.00000   0.00000
                  --------  --------  --------  --------
  0C   2s              0.1       0.0       0.0       0.9
  0C   1pz            91.3       0.0       0.0       7.7
  0C   1px             0.0      20.3      79.1       0.0
  0C   1py             0.0      79.1      20.3       0.0
  1O   2s              0.8       0.0       0.0       0.1
  1O   1pz             7.7       0.0       0.0      91.2
  1O   1px             0.0       0.1       0.5       0.0
  1O   1py             0.0       0.5       0.1       0.0


                     *******************************
                     * LOEWDIN POPULATION ANALYSIS *
                     *******************************

----------------------
LOEWDIN ATOMIC CHARGES
----------------------
   0 C :    0.153786
   1 O :   -0.153786

-----------------------
LOEWDIN ORBITAL CHARGES
-----------------------
   0:   0C   1s           1.999415
   1:   0C   2s           1.978885
   2:   0C   1pz          1.840750
   3:   0C   1px          0.013582
   4:   0C   1py          0.013582
   5:   1O   1s           1.999930
   6:   1O   2s           1.996944
   7:   1O   1pz          0.184076
   8:   1O   1px          1.986418
   9:   1O   1py          1.986418

-------------------------------
LOEWDIN REDUCED ORBITAL CHARGES
-------------------------------
  0 C s       :     3.978300  s :     3.978300
      pz      :     1.840750  p :     1.867914
      px      :     0.013582
      py      :     0.013582
  1 O s       :     3.996874  s :     3.996874
      pz      :     0.184076  p :     4.156911
      px      :     1.986418
      py      :     1.986418

---------------------------------
LOEWDIN BOND ORDERS (THRESH 0.050000)
---------------------------------
B(  0-C ,  1-O ) :   0.3831 

----------------------------------
LOEWDIN ORBITAL POPULATIONS PER MO
----------------------------------
THRESHOLD FOR PRINTING IS 0.1%
                      0         1         2         3         4         5   
                 -20.15416 -11.02720  -1.04690  -0.66015  -0.31748  -0.31748
                   2.00000   2.00000   2.00000   2.00000   2.00000   2.00000
                  --------  --------  --------  --------  --------  --------
  0C   1s              0.0      97.8       0.0       2.1       0.0       0.0
  0C   2s              0.0       2.2       1.6      95.0       0.0       0.0
  0C   1pz             0.0       0.0       1.2       0.0       0.0       0.0
  0C   1px             0.0       0.0       0.0       0.0       0.5       0.1
  0C   1py             0.0       0.0       0.0       0.0       0.1       0.5
  1O   1s             98.1       0.0       1.9       0.0       0.0       0.0
  1O   2s              1.9       0.0      95.3       1.6       0.0       0.0
  1O   1pz             0.0       0.0       0.0       1.2       0.0       0.0
  1O   1px             0.0       0.0       0.0       0.0      79.1      20.3
  1O   1py             0.0       0.0       0.0       0.0      20.3      79.1

                      6         7         8         9   
                  -0.28543   0.20293   0.20293   0.34558
                   2.00000   0.00000   0.00000   0.00000
                  --------  --------  --------  --------
  0C   2s              0.1       0.0       0.0       1.1
  0C   1pz            90.8       0.0       0.0       8.0
  0C   1px             0.0      20.3      79.1       0.0
  0C   1py             0.0      79.1      20.3       0.0
  1O   2s              1.0       0.0       0.0       0.2
  1O   1pz             8.0       0.0       0.0      90.8
  1O   1px             0.0       0.1       0.5       0.0
  1O   1py             0.0       0.5       0.1       0.0

------------------------------------------
LOEWDIN REDUCED ORBITAL POPULATIONS PER MO
-------------------------------------------
THRESHOLD FOR PRINTING IS 0.1%
                      0         1         2         3         4         5   
                 -20.15416 -11.02720  -1.04690  -0.66015  -0.31748  -0.31748
                   2.00000   2.00000   2.00000   2.00000   2.00000   2.00000
                  --------  --------  --------  --------  --------  --------
 0 C  s               0.0     100.0       1.7      97.1       0.0       0.0
 0 C  pz              0.0       0.0       1.2       0.0       0.0       0.0
 0 C  px              0.0       0.0       0.0       0.0       0.5       0.1
 0 C  py              0.0       0.0       0.0       0.0       0.1       0.5
 1 O  s             100.0       0.0      97.1       1.7       0.0       0.0
 1 O  pz              0.0       0.0       0.0       1.2       0.0       0.0
 1 O  px              0.0       0.0       0.0       0.0      79.1      20.3
 1 O  py              0.0       0.0       0.0       0.0      20.3      79.1

                      6         7         8         9   
                  -0.28543   0.20293   0.20293   0.34558
                   2.00000   0.00000   0.00000   0.00000
                  --------  --------  --------  --------
 0 C  s               0.1       0.0       0.0       1.1
 0 C  pz             90.8       0.0       0.0       8.0
 0 C  px              0.0      20.3      79.1       0.0
 0 C  py              0.0      79.1      20.3       0.0
 1 O  s               1.1       0.0       0.0       0.2
 1 O  pz              8.0       0.0       0.0      90.8
 1 O  px              0.0       0.1       0.5       0.0
 1 O  py              0.0       0.5       0.1       0.0


                      *****************************
                      * MAYER POPULATION ANALYSIS *
                      *****************************

  NA   - Mulliken gross atomic population
  ZA   - Total nuclear charge
  QA   - Mulliken gross atomic charge
  VA   - Mayer's total valence
  BVA  - Mayer's bonded valence
  FA   - Mayer's free valence

  ATOM       NA         ZA         QA         VA         BVA        FA
  0 C      5.8539     6.0000     0.1461     0.3683     0.3683    -0.0000
  1 O      8.1461     8.0000    -0.1461     0.3683     0.3683    -0.0000

  Mayer bond orders larger than 0.100000
B(  0-C ,  1-O ) :   0.3683 

-------
TIMINGS
-------

Total SCF time: 0 days 0 hours 0 min 0 sec 

Total time                  ....       0.108 sec
Sum of individual times     ....       0.045 sec  ( 41.6%)

Fock matrix formation       ....       0.032 sec  ( 29.6%)
Diagonalization             ....       0.000 sec  (  0.5%)
Density matrix formation    ....       0.000 sec  (  0.0%)
Population analysis         ....       0.001 sec  (  1.2%)
Initial guess               ....       0.002 sec  (  2.2%)
Orbital Transformation      ....       0.000 sec  (  0.3%)
Orbital Orthonormalization  ....       0.000 sec  (  0.0%)
DIIS solution               ....       0.001 sec  (  0.8%)
SOSCF solution              ....       0.000 sec  (  0.0%)

Maximum memory used throughout the entire SCF-calculation: 223.7 MB

-------------------------   --------------------
FINAL SINGLE POINT ENERGY      -110.792888790609
-------------------------   --------------------


                            ***************************************
                            *     ORCA property calculations      *
                            ***************************************

                                    ---------------------
                                    Active property flags
                                    ---------------------
   (+) Dipole Moment


------------------------------------------------------------------------------
                       ORCA ELECTRIC PROPERTIES CALCULATION
------------------------------------------------------------------------------

Dipole Moment Calculation                       ... on
Quadrupole Moment Calculation                   ... off
Polarizability Calculation                      ... off
GBWName                                         ... co.gbw
Electron density                                ... co.scfp
SHARK General Contraction Test:  Segmented basis detected
   -> Pre-screening matrix found on disk - Trying to read with NShells=6
   -> Passing Pre-screening matrix on to SHARK ...ok
   -> Leaving CheckPreScreeningMatrix
----------------------
SHARK INTEGRAL PACKAGE
----------------------

Number of atoms                             ...      2
Number of basis functions                   ...     10
Number of shells                            ...      6
Maximum angular momentum                    ...      1
Integral batch strategy                     ... SHARK/LIBINT Hybrid
RI-J (if used) integral strategy            ... SPLIT-RIJ (Revised 2003 algorithm where possible)
Printlevel                                  ...      2
Contraction scheme used                     ... SEGMENTED contraction
Coulomb Range Separation                    ... NOT USED
Exchange Range Separation                   ... NOT USED
Finite Nucleus Model                        ... NOT USED
Auxiliary Coulomb fitting basis             ... NOT available
Auxiliary J/K fitting basis                 ... NOT available
Auxiliary Correlation fitting basis         ... NOT available
Auxiliary 'external' fitting basis          ... NOT available
Integral threshold                          ...     1.000000e-10
Primitive cut-off                           ...     1.000000e-11
Primitive pair pre-selection threshold      ...     1.000000e-11

The origin for moment calculation is the CENTER OF MASS  = ( 0.000000,  0.000000  2.301261)

-------------
DIPOLE MOMENT
-------------
                                X             Y             Z
Electronic contribution:      0.00000       0.00000      -0.60482
Nuclear contribution   :      0.00000       0.00000       0.01352
                        -----------------------------------------
Total Dipole Moment    :      0.00000       0.00000      -0.59130
                        -----------------------------------------
Magnitude (a.u.)       :      0.59130
Magnitude (Debye)      :      1.50297



--------------------
Rotational spectrum 
--------------------
 
Rotational constants in cm-1:     0.000000     0.540585     0.540585 
Rotational constants in MHz :     0.000000 16206.316146 16206.316146 

 Dipole components along the rotational axes: 
x,y,z [a.u.] :    -0.591302     0.000000     0.000000 
x,y,z [Debye]:    -1.502971     0.000000     0.000000 

 

Timings for individual modules:

Sum of individual times         ...        0.154 sec (=   0.003 min)
GTO integral calculation        ...        0.035 sec (=   0.001 min)  22.8 %
SCF iterations                  ...        0.119 sec (=   0.002 min)  77.2 %
                             ****ORCA TERMINATED NORMALLY****
TOTAL RUN TIME: 0 days 0 hours 0 minutes 0 seconds 183 msec
