
                                 *****************
                                 * O   R   C   A *
                                 *****************

                                            #,                                       
                                            ###                                      
                                            ####                                     
                                            #####                                    
                                            ######                                   
                                           ########,                                 
                                     ,,################,,,,,                         
                               ,,#################################,,                 
                          ,,##########################################,,             
                       ,#########################################, ''#####,          
                    ,#############################################,,   '####,        
                  ,##################################################,,,,####,       
                ,###########''''           ''''###############################       
              ,#####''   ,,,,##########,,,,          '''####'''          '####       
            ,##' ,,,,###########################,,,                        '##       
           ' ,,###''''                  '''############,,,                           
         ,,##''                                '''############,,,,        ,,,,,,###''
      ,#''                                            '''#######################'''  
     '                                                          ''''####''''         
             ,#######,   #######,   ,#######,      ##                                
            ,#'     '#,  ##    ##  ,#'     '#,    #''#        ######   ,####,        
            ##       ##  ##   ,#'  ##            #'  '#       #        #'  '#        
            ##       ##  #######   ##           ,######,      #####,   #    #        
            '#,     ,#'  ##    ##  '#,     ,#' ,#      #,         ##   #,  ,#        
             '#######'   ##     ##  '#######'  #'      '#     #####' # '####'        



                  #######################################################
                  #                        -***-                        #
                  #          Department of theory and spectroscopy      #
                  #    Directorship and core code : Frank Neese         #
                  #        Max Planck Institute fuer Kohlenforschung    #
                  #                Kaiser Wilhelm Platz 1               #
                  #                 D-45470 Muelheim/Ruhr               #
                  #                      Germany                        #
                  #                                                     #
                  #                  All rights reserved                #
                  #                        -***-                        #
                  #######################################################


                         Program Version 5.0.4 -  RELEASE  -


 With contributions from (in alphabetic order):
   Daniel Aravena         : Magnetic Suceptibility
   Michael Atanasov       : Ab Initio Ligand Field Theory (pilot matlab implementation)
   Alexander A. Auer      : GIAO ZORA, VPT2 properties, NMR spectrum
   Ute Becker             : Parallelization
   Giovanni Bistoni       : ED, misc. LED, open-shell LED, HFLD
   Martin Brehm           : Molecular dynamics
   Dmytro Bykov           : SCF Hessian
   Vijay G. Chilkuri      : MRCI spin determinant printing, contributions to CSF-ICE
   Dipayan Datta          : RHF DLPNO-CCSD density
   Achintya Kumar Dutta   : EOM-CC, STEOM-CC
   Dmitry Ganyushin       : Spin-Orbit,Spin-Spin,Magnetic field MRCI
   Miquel Garcia          : C-PCM and meta-GGA Hessian, CC/C-PCM, Gaussian charge scheme
   Yang Guo               : DLPNO-NEVPT2, F12-NEVPT2, CIM, IAO-localization
   Andreas Hansen         : Spin unrestricted coupled pair/coupled cluster methods
   Benjamin Helmich-Paris : MC-RPA, TRAH-SCF, COSX integrals
   Lee Huntington         : MR-EOM, pCC
   Robert Izsak           : Overlap fitted RIJCOSX, COSX-SCS-MP3, EOM
   Marcus Kettner         : VPT2
   Christian Kollmar      : KDIIS, OOCD, Brueckner-CCSD(T), CCSD density, CASPT2, CASPT2-K
   Simone Kossmann        : Meta GGA functionals, TD-DFT gradient, OOMP2, MP2 Hessian
   Martin Krupicka        : Initial AUTO-CI
   Lucas Lang             : DCDCAS
   Marvin Lechner         : AUTO-CI (C++ implementation), FIC-MRCC
   Dagmar Lenk            : GEPOL surface, SMD
   Dimitrios Liakos       : Extrapolation schemes; Compound Job, initial MDCI parallelization
   Dimitrios Manganas     : Further ROCIS development; embedding schemes
   Dimitrios Pantazis     : SARC Basis sets
   Anastasios Papadopoulos: AUTO-CI, single reference methods and gradients
   Taras Petrenko         : DFT Hessian,TD-DFT gradient, ASA, ECA, R-Raman, ABS, FL, XAS/XES, NRVS
   Peter Pinski           : DLPNO-MP2, DLPNO-MP2 Gradient
   Christoph Reimann      : Effective Core Potentials
   Marius Retegan         : Local ZFS, SOC
   Christoph Riplinger    : Optimizer, TS searches, QM/MM, DLPNO-CCSD(T), (RO)-DLPNO pert. Triples
   Tobias Risthaus        : Range-separated hybrids, TD-DFT gradient, RPA, STAB
   Michael Roemelt        : Original ROCIS implementation
   Masaaki Saitow         : Open-shell DLPNO-CCSD energy and density
   Barbara Sandhoefer     : DKH picture change effects
   Avijit Sen             : IP-ROCIS
   Kantharuban Sivalingam : CASSCF convergence, NEVPT2, FIC-MRCI
   Bernardo de Souza      : ESD, SOC TD-DFT
   Georgi Stoychev        : AutoAux, RI-MP2 NMR, DLPNO-MP2 response
   Willem Van den Heuvel  : Paramagnetic NMR
   Boris Wezisla          : Elementary symmetry handling
   Frank Wennmohs         : Technical directorship


 We gratefully acknowledge several colleagues who have allowed us to
 interface, adapt or use parts of their codes:
   Stefan Grimme, W. Hujo, H. Kruse, P. Pracht,  : VdW corrections, initial TS optimization,
                  C. Bannwarth, S. Ehlert          DFT functionals, gCP, sTDA/sTD-DF
   Ed Valeev, F. Pavosevic, A. Kumar             : LibInt (2-el integral package), F12 methods
   Garnet Chan, S. Sharma, J. Yang, R. Olivares  : DMRG
   Ulf Ekstrom                                   : XCFun DFT Library
   Mihaly Kallay                                 : mrcc  (arbitrary order and MRCC methods)
   Jiri Pittner, Ondrej Demel                    : Mk-CCSD
   Frank Weinhold                                : gennbo (NPA and NBO analysis)
   Christopher J. Cramer and Donald G. Truhlar   : smd solvation model
   Lars Goerigk                                  : TD-DFT with DH, B97 family of functionals
   V. Asgeirsson, H. Jonsson                     : NEB implementation
   FAccTs GmbH                                   : IRC, NEB, NEB-TS, DLPNO-Multilevel, CI-OPT
                                                   MM, QMMM, 2- and 3-layer-ONIOM, Crystal-QMMM,
                                                   LR-CPCM, SF, NACMEs, symmetry and pop. for TD-DFT,
                                                   nearIR, NL-DFT gradient (VV10), updates on ESD,
                                                   ML-optimized integration grids
   S Lehtola, MJT Oliveira, MAL Marques          : LibXC Library
   Liviu Ungur et al                             : ANISO software


 Your calculation uses the libint2 library for the computation of 2-el integrals
 For citations please refer to: http://libint.valeyev.net

 Your ORCA version has been built with support for libXC version: 5.1.0
 For citations please refer to: https://tddft.org/programs/libxc/

 This ORCA versions uses:
   CBLAS   interface :  Fast vector & matrix operations
   LAPACKE interface :  Fast linear algebra routines
   SCALAPACK package :  Parallel linear algebra routines
   Shared memory     :  Shared parallel matrices
   BLAS/LAPACK       :  OpenBLAS 0.3.15  USE64BITINT DYNAMIC_ARCH NO_AFFINITY Zen SINGLE_THREADED
        Core in use  :  Zen
   Copyright (c) 2011-2014, The OpenBLAS Project




***************************************
The coordinates will be read from file: hf.xyz
***************************************


================================================================================

----- Orbital basis set information -----
Your calculation utilizes the basis: STO-3G
   H-Ne       : W. J. Hehre, R. F. Stewart and J. A. Pople, J. Chem. Phys. 2657 (1969).
   Na-Ar      : W. J. Hehre, R. Ditchfield, R. F. Stewart and J. A. Pople, J. Chem. Phys. 2769 (1970).
   K,Ca,Ga-Kr : W. J. Pietro, B. A. Levy, W. J. Hehre and R. F. Stewart, J. Am. Chem. Soc. 19, 2225 (1980).
   Sc-Zn,Y-Cd : W. J. Pietro and W. J. Hehre, J. Comp. Chem. 4, 241 (1983).

================================================================================
                                        WARNINGS
                       Please study these warnings very carefully!
================================================================================


INFO   : the flag for use of the SHARK integral package has been found!

================================================================================
                                       INPUT FILE
================================================================================
NAME = hf.inp
|  1> ! HF STO-3G LARGEPRINT
|  2> 
|  3> %output
|  4> 	Print[ P_Basis ] 2
|  5> 	Print[ P_MOs ] 1
|  6> end
|  7> 
|  8> * xyzfile 0 1 hf.xyz
|  9> 
| 10>                          ****END OF INPUT****
================================================================================

                       ****************************
                       * Single Point Calculation *
                       ****************************

---------------------------------
CARTESIAN COORDINATES (ANGSTROEM)
---------------------------------
  H      0.000000    0.000000    0.000000
  F      0.000000    0.000000    1.733000

----------------------------
CARTESIAN COORDINATES (A.U.)
----------------------------
  NO LB      ZA    FRAG     MASS         X           Y           Z
   0 H     1.0000    0     1.008    0.000000    0.000000    0.000000
   1 F     9.0000    0    18.998    0.000000    0.000000    3.274895

--------------------------------
INTERNAL COORDINATES (ANGSTROEM)
--------------------------------
 H      0   0   0     0.000000000000     0.00000000     0.00000000
 F      1   0   0     1.733000000000     0.00000000     0.00000000

---------------------------
INTERNAL COORDINATES (A.U.)
---------------------------
 H      0   0   0     0.000000000000     0.00000000     0.00000000
 F      1   0   0     3.274895390086     0.00000000     0.00000000

---------------------
BASIS SET INFORMATION
---------------------
There are 2 groups of distinct atoms

 Group   1 Type H   : 3s contracted to 1s pattern {3}
 Group   2 Type F   : 6s3p contracted to 2s1p pattern {33/3}

Atom   0H    basis set group =>   1
Atom   1F    basis set group =>   2

-------------------------
BASIS SET IN INPUT FORMAT
-------------------------

 # Basis set for element : H 
 NewGTO H 
 S 3 
   1       3.4252509100      0.1543289707
   2       0.6239137300      0.5353281424
   3       0.1688554000      0.4446345420
  end;

 # Basis set for element : F 
 NewGTO F 
 S 3 
   1     166.6791300000      0.1543289701
   2      30.3608120000      0.5353281404
   3       8.2168207000      0.4446345403
 S 3 
   1       6.4648032000     -0.0999672291
   2       1.5022812000      0.3995128265
   3       0.4885885000      0.7001154638
 P 3 
   1       6.4648032000      0.1559162698
   2       1.5022812000      0.6076837191
   3       0.4885885000      0.3919573894
  end;

------------------------------------------------------------------------------
                           ORCA GTO INTEGRAL CALCULATION
------------------------------------------------------------------------------
------------------------------------------------------------------------------
                   ___                                                        
                  /   \      - P O W E R E D   B Y -                         
                 /     \                                                     
                 |  |  |   _    _      __       _____    __    __             
                 |  |  |  | |  | |    /  \     |  _  \  |  |  /  |          
                  \  \/   | |  | |   /    \    | | | |  |  | /  /          
                 / \  \   | |__| |  /  /\  \   | |_| |  |  |/  /          
                |  |  |   |  __  | /  /__\  \  |    /   |      \           
                |  |  |   | |  | | |   __   |  |    \   |  |\   \          
                \     /   | |  | | |  |  |  |  | |\  \  |  | \   \       
                 \___/    |_|  |_| |__|  |__|  |_| \__\ |__|  \__/        
                                                                              
                      - O R C A' S   B I G   F R I E N D -                    
                                      &                                       
                       - I N T E G R A L  F E E D E R -                       
                                                                              
 v1 FN, 2020, v2 2021                                                         
------------------------------------------------------------------------------


Reading SHARK input file hf.SHARKINP.tmp ... SHARK General Contraction Test:  Segmented basis detected
   -> Pre-screening matrix *NOT* found on disk - recalculating with NShells=4
   -> Leaving CheckPreScreeningMatrix
ok
----------------------
SHARK INTEGRAL PACKAGE
----------------------

Number of atoms                             ...      2
Number of basis functions                   ...      6
Number of shells                            ...      4
Maximum angular momentum                    ...      1
Integral batch strategy                     ... SHARK/LIBINT Hybrid
RI-J (if used) integral strategy            ... SPLIT-RIJ (Revised 2003 algorithm where possible)
Printlevel                                  ...      2
Contraction scheme used                     ... SEGMENTED contraction
Coulomb Range Separation                    ... NOT USED
Exchange Range Separation                   ... NOT USED
Finite Nucleus Model                        ... NOT USED
Auxiliary Coulomb fitting basis             ... NOT available
Auxiliary J/K fitting basis                 ... NOT available
Auxiliary Correlation fitting basis         ... NOT available
Auxiliary 'external' fitting basis          ... NOT available
Integral threshold                          ...     1.000000e-10
Primitive cut-off                           ...     1.000000e-11
Primitive pair pre-selection threshold      ...     1.000000e-11

Calculating pre-screening integrals         ... done (  0.0 sec) Dimension = 4
Organizing shell pair data                  ... done (  0.0 sec)
Shell pair information
Total number of shell pairs                 ...        10
Shell pairs after pre-screening             ...        10
Total number of primitive shell pairs       ...        90
Primitive shell pairs kept                  ...        88
          la=0 lb=0:      6 shell pairs
          la=1 lb=0:      3 shell pairs
          la=1 lb=1:      1 shell pairs

Calculating one electron integrals          ... done (  0.0 sec)
Calculating Nuclear repulsion               ... done (  0.0 sec) ENN=      2.748179385286 Eh

SHARK setup successfully completed in   0.0 seconds

Maximum memory used throughout the entire GTOINT-calculation: 3.9 MB
-------------------------------------------------------------------------------
                                 ORCA SCF
-------------------------------------------------------------------------------

------------
SCF SETTINGS
------------
Hamiltonian:
 Ab initio Hamiltonian  Method          .... Hartree-Fock(GTOs)


General Settings:
 Integral files         IntName         .... hf
 Hartree-Fock type      HFTyp           .... RHF
 Total Charge           Charge          ....    0
 Multiplicity           Mult            ....    1
 Number of Electrons    NEL             ....   10
 Basis Dimension        Dim             ....    6
 Nuclear Repulsion      ENuc            ....      2.7481793853 Eh

Convergence Acceleration:
 DIIS                   CNVDIIS         .... on
   Start iteration      DIISMaxIt       ....    12
   Startup error        DIISStart       ....  0.200000
   # of expansion vecs  DIISMaxEq       ....     5
   Bias factor          DIISBfac        ....   1.050
   Max. coefficient     DIISMaxC        ....  10.000
 Trust-Rad. Augm. Hess. CNVTRAH         .... auto
   Auto Start mean grad. ratio tolernc. ....  1.125000
   Auto Start start iteration           ....    20
   Auto Start num. interpolation iter.  ....    10
   Max. Number of Micro iterations      ....    16
   Max. Number of Macro iterations      .... Maxiter - #DIIS iter
   Number of Davidson start vectors     ....     2
   Converg. threshold I  (grad. norm)   ....   5.000e-05
   Converg. threshold II (energy diff.) ....   1.000e-06
   Grad. Scal. Fac. for Micro threshold ....   0.100
   Minimum threshold for Micro iter.    ....   0.010
   NR start threshold (gradient norm)   ....   0.001
   Initial trust radius                 ....   0.400
   Minimum AH scaling param. (alpha)    ....   1.000
   Maximum AH scaling param. (alpha)    .... 1000.000
   Orbital update algorithm             .... Taylor
   White noise on init. David. guess    .... on
   Maximum white noise                  ....   0.010
   Quad. conv. algorithm                .... NR
 SOSCF                  CNVSOSCF        .... on
   Start iteration      SOSCFMaxIt      ....   150
   Startup grad/error   SOSCFStart      ....  0.003300
 Level Shifting         CNVShift        .... on
   Level shift para.    LevelShift      ....    0.2500
   Turn off err/grad.   ShiftErr        ....    0.0010
 Zerner damping         CNVZerner       .... off
 Static damping         CNVDamp         .... on
   Fraction old density DampFac         ....    0.7000
   Max. Damping (<1)    DampMax         ....    0.9800
   Min. Damping (>=0)   DampMin         ....    0.0000
   Turn off err/grad.   DampErr         ....    0.1000
 Fernandez-Rico         CNVRico         .... off

SCF Procedure:
 Maximum # iterations   MaxIter         ....   125
 SCF integral mode      SCFMode         .... Direct
   Integral package                     .... SHARK and LIBINT hybrid scheme
 Reset frequency        DirectResetFreq ....    20
 Integral Threshold     Thresh          ....  1.000e-10 Eh
 Primitive CutOff       TCut            ....  1.000e-11 Eh

Convergence Tolerance:
 Convergence Check Mode ConvCheckMode   .... Total+1el-Energy
 Convergence forced     ConvForced      .... 0
 Energy Change          TolE            ....  1.000e-06 Eh
 1-El. energy change                    ....  1.000e-03 Eh
 Orbital Gradient       TolG            ....  5.000e-05
 Orbital Rotation angle TolX            ....  5.000e-05
 DIIS Error             TolErr          ....  1.000e-06


Diagonalization of the overlap matrix:
Smallest eigenvalue                        ... 7.403e-01
Time for diagonalization                   ...    0.000 sec
Threshold for overlap eigenvalues          ... 1.000e-08
Number of eigenvalues below threshold      ... 0
Time for construction of square roots      ...    0.000 sec
Total time needed                          ...    0.000 sec

SHARK General Contraction Test:  Segmented basis detected
   -> Pre-screening matrix found on disk - Trying to read with NShells=4
   -> Passing Pre-screening matrix on to SHARK ...ok
   -> Leaving CheckPreScreeningMatrix
----------------------
SHARK INTEGRAL PACKAGE
----------------------

Number of atoms                             ...      2
Number of basis functions                   ...      6
Number of shells                            ...      4
Maximum angular momentum                    ...      1
Integral batch strategy                     ... SHARK/LIBINT Hybrid
RI-J (if used) integral strategy            ... SPLIT-RIJ (Revised 2003 algorithm where possible)
Printlevel                                  ...      2
Contraction scheme used                     ... SEGMENTED contraction
Coulomb Range Separation                    ... NOT USED
Exchange Range Separation                   ... NOT USED
Finite Nucleus Model                        ... NOT USED
Auxiliary Coulomb fitting basis             ... NOT available
Auxiliary J/K fitting basis                 ... NOT available
Auxiliary Correlation fitting basis         ... NOT available
Auxiliary 'external' fitting basis          ... NOT available
Integral threshold                          ...     1.000000e-10
Primitive cut-off                           ...     1.000000e-11
Primitive pair pre-selection threshold      ...     1.000000e-11

Time for model grid setup =    0.005 sec

------------------------------
INITIAL GUESS: MODEL POTENTIAL
------------------------------
Loading Hartree-Fock densities                     ... done
Calculating cut-offs                               ... done
Initializing the effective Hamiltonian             ... done
Setting up the integral package (SHARK)            ... done
Starting the Coulomb interaction                   ...     -> Generating integrals - 
    -> L=0 0 :     0.000 sec done=        96 skipped=         0 prim-skipped=         0
    -> L=1 0 :     0.000 sec done=        48 skipped=         0 prim-skipped=         0
    -> L=1 1 :     0.000 sec done=        16 skipped=         0 prim-skipped=         0
done (   0.0 sec)
Reading the grid                                   ... done
Mapping shells                                     ... done
Starting the XC term evaluation                    ... done (   0.0 sec)
Transforming the Hamiltonian                       ... done (   0.0 sec)
Diagonalizing the Hamiltonian                      ... done (   0.0 sec)
Back transforming the eigenvectors                 ... done (   0.0 sec)
Now organizing SCF variables                       ... done
                      ------------------
                      INITIAL GUESS DONE (   0.0 sec)
                      ------------------
----------------------
INITIAL GUESS ORBITALS
----------------------
                      0         1         2         3         4         5   
                 -23.73555  -1.03212  -0.32051  -0.28322  -0.28322  -0.10972
                   2.00000   2.00000   2.00000   2.00000   2.00000   0.00000
                  --------  --------  --------  --------  --------  --------
  0H   1s        -0.001613  0.037492  0.397538  0.000000  0.000000 -0.928404
  1F   1s         0.993714 -0.268352  0.014201  0.000000  0.000000 -0.026132
  1F   2s         0.025215  1.024496 -0.067394 -0.000000  0.000000  0.130426
  1F   1pz       -0.000170 -0.006550 -0.879262 -0.000000  0.000000 -0.486928
  1F   1px        0.000000 -0.000000 -0.000000  1.000000  0.000000  0.000000
  1F   1py        0.000000  0.000000  0.000000  0.000000  1.000000  0.000000
--------------
SCF ITERATIONS
--------------
               ***  Starting incremental Fock matrix formation  ***
===> SHARK/Fock/General/Sym: HFTyp=1 DoJ=1 DoX=1 facj= 2.000 facx=-0.500 NFock=1 NumOp=1 NMat=1 RangeSep=0 GeneralContraction=0 PGCOpt=-1
    -> L=0 0 0 0:     0.000 sec done=        21 (=100.0%) skipped=         0 
    -> L=1 0 0 0:     0.000 sec done=        18 (=100.0%) skipped=         0 
    -> L=1 0 1 0:     0.000 sec done=         6 (=100.0%) skipped=         0 
    -> L=1 1 0 0:     0.000 sec done=         6 (=100.0%) skipped=         0 
    -> L=1 1 1 0:     0.000 sec done=         3 (=100.0%) skipped=         0 
    -> L=1 1 1 1:     0.000 sec done=         1 (=100.0%) skipped=         0 
    -> RHF LowL loop time =     0.000 sec
    ->Total SHARK integral loop time =    0.000 sec
    ->Total LIBINT loop time =    0.004 sec

                         ----------------------------
                         !        ITERATION     0   !
                         ----------------------------
   Total Energy        :     -98.211790833799 Eh
   Energy Change       :     -98.211790833799 Eh
   MAX-DP              :       0.172558450290
   RMS-DP              :       0.037946095643
   Actual Damping      :       0.7000
   Actual Level Shift  :       0.2500 Eh

===> SHARK/Fock/General/Sym: HFTyp=1 DoJ=1 DoX=1 facj= 2.000 facx=-0.500 NFock=1 NumOp=1 NMat=1 RangeSep=0 GeneralContraction=0 PGCOpt=-1
    -> L=0 0 0 0:     0.000 sec done=        21 (=100.0%) skipped=         0 
    -> L=1 0 0 0:     0.000 sec done=        18 (=100.0%) skipped=         0 
    -> L=1 0 1 0:     0.000 sec done=         6 (=100.0%) skipped=         0 
    -> L=1 1 0 0:     0.000 sec done=         6 (=100.0%) skipped=         0 
    -> L=1 1 1 0:     0.000 sec done=         3 (=100.0%) skipped=         0 
    -> L=1 1 1 1:     0.000 sec done=         1 (=100.0%) skipped=         0 
    -> RHF LowL loop time =     0.000 sec
    ->Total SHARK integral loop time =    0.000 sec
    ->Total LIBINT loop time =    0.000 sec

                         ----------------------------
                         !        ITERATION     1   !
                         ----------------------------
   Total Energy        :     -98.254896255825 Eh
   Energy Change       :      -0.043105422026 Eh
   MAX-DP              :       0.163162913877
   RMS-DP              :       0.035656287670
   Actual Damping      :       0.7000
   Actual Level Shift  :       0.2500 Eh

===> SHARK/Fock/General/Sym: HFTyp=1 DoJ=1 DoX=1 facj= 2.000 facx=-0.500 NFock=1 NumOp=1 NMat=1 RangeSep=0 GeneralContraction=0 PGCOpt=-1
    -> L=0 0 0 0:     0.000 sec done=        21 (=100.0%) skipped=         0 
    -> L=1 0 0 0:     0.000 sec done=        18 (=100.0%) skipped=         0 
    -> L=1 0 1 0:     0.000 sec done=         6 (=100.0%) skipped=         0 
    -> L=1 1 0 0:     0.000 sec done=         6 (=100.0%) skipped=         0 
    -> L=1 1 1 0:     0.000 sec done=         3 (=100.0%) skipped=         0 
    -> L=1 1 1 1:     0.000 sec done=         1 (=100.0%) skipped=         0 
    -> RHF LowL loop time =     0.000 sec
    ->Total SHARK integral loop time =    0.000 sec
    ->Total LIBINT loop time =    0.000 sec
                               ***Turning on DIIS***

                         ----------------------------
                         !        ITERATION     2   !
                         ----------------------------
   Total Energy        :     -98.282888330133 Eh
   Energy Change       :      -0.027992074309 Eh
   MAX-DP              :       0.111183323925
   RMS-DP              :       0.024306077306
   Actual Damping      :       0.7000
   Actual Level Shift  :       0.2500 Eh
   DIIS-Error          :       0.161084541747

===> SHARK/Fock/General/Sym: HFTyp=1 DoJ=1 DoX=1 facj= 2.000 facx=-0.500 NFock=1 NumOp=1 NMat=1 RangeSep=0 GeneralContraction=0 PGCOpt=-1
    -> L=0 0 0 0:     0.000 sec done=        21 (=100.0%) skipped=         0 
    -> L=1 0 0 0:     0.000 sec done=        18 (=100.0%) skipped=         0 
    -> L=1 0 1 0:     0.000 sec done=         6 (=100.0%) skipped=         0 
    -> L=1 1 0 0:     0.000 sec done=         6 (=100.0%) skipped=         0 
    -> L=1 1 1 0:     0.000 sec done=         3 (=100.0%) skipped=         0 
    -> L=1 1 1 1:     0.000 sec done=         1 (=100.0%) skipped=         0 
    -> RHF LowL loop time =     0.000 sec
    ->Total SHARK integral loop time =    0.000 sec
    ->Total LIBINT loop time =    0.000 sec

                         ----------------------------
                         !        ITERATION     3   !
                         ----------------------------
   Total Energy        :     -98.586280192210 Eh
   Energy Change       :      -0.303391862077 Eh
   MAX-DP              :       0.178654910973
   RMS-DP              :       0.039497934822
   Actual Damping      :       0.0000
   Actual Level Shift  :       0.2500 Eh
   DIIS-Error          :       0.088179559258
   DIIS coefficients:
     -0.97702   1.97702

===> SHARK/Fock/General/Sym: HFTyp=1 DoJ=1 DoX=1 facj= 2.000 facx=-0.500 NFock=1 NumOp=1 NMat=1 RangeSep=0 GeneralContraction=0 PGCOpt=-1
    -> L=0 0 0 0:     0.000 sec done=        21 (=100.0%) skipped=         0 
    -> L=1 0 0 0:     0.000 sec done=        18 (=100.0%) skipped=         0 
    -> L=1 0 1 0:     0.000 sec done=         6 (=100.0%) skipped=         0 
    -> L=1 1 0 0:     0.000 sec done=         6 (=100.0%) skipped=         0 
    -> L=1 1 1 0:     0.000 sec done=         3 (=100.0%) skipped=         0 
    -> L=1 1 1 1:     0.000 sec done=         1 (=100.0%) skipped=         0 
    -> RHF LowL loop time =     0.000 sec
    ->Total SHARK integral loop time =    0.000 sec
    ->Total LIBINT loop time =    0.000 sec

                         ----------------------------
                         !        ITERATION     4   !
                         ----------------------------
   Total Energy        :     -98.198278359351 Eh
   Energy Change       :       0.388001832859 Eh
   MAX-DP              :       0.032923617270
   RMS-DP              :       0.007248918097
   Actual Damping      :       0.0000
   Actual Level Shift  :       0.2500 Eh
   DIIS-Error          :       0.036098940605
   DIIS coefficients:
      0.08163   0.15211   0.76626

===> SHARK/Fock/General/Sym: HFTyp=1 DoJ=1 DoX=1 facj= 2.000 facx=-0.500 NFock=1 NumOp=1 NMat=1 RangeSep=0 GeneralContraction=0 PGCOpt=-1
    -> L=0 0 0 0:     0.000 sec done=        21 (=100.0%) skipped=         0 
    -> L=1 0 0 0:     0.000 sec done=        18 (=100.0%) skipped=         0 
    -> L=1 0 1 0:     0.000 sec done=         6 (=100.0%) skipped=         0 
    -> L=1 1 0 0:     0.000 sec done=         6 (=100.0%) skipped=         0 
    -> L=1 1 1 0:     0.000 sec done=         3 (=100.0%) skipped=         0 
    -> L=1 1 1 1:     0.000 sec done=         1 (=100.0%) skipped=         0 
    -> RHF LowL loop time =     0.000 sec
    ->Total SHARK integral loop time =    0.000 sec
    ->Total LIBINT loop time =    0.000 sec

                         ----------------------------
                         !        ITERATION     5   !
                         ----------------------------
   Total Energy        :     -98.290307436245 Eh
   Energy Change       :      -0.092029076894 Eh
   MAX-DP              :       0.010840256449
   RMS-DP              :       0.002393808819
   Actual Damping      :       0.0000
   Actual Level Shift  :       0.2500 Eh
   DIIS-Error          :       0.011680956249
   DIIS coefficients:
      0.02123   0.02853  -0.19630   1.14653

===> SHARK/Fock/General/Sym: HFTyp=1 DoJ=1 DoX=1 facj= 2.000 facx=-0.500 NFock=1 NumOp=1 NMat=1 RangeSep=0 GeneralContraction=0 PGCOpt=-1
    -> L=0 0 0 0:     0.000 sec done=        21 (=100.0%) skipped=         0 
    -> L=1 0 0 0:     0.000 sec done=        18 (=100.0%) skipped=         0 
    -> L=1 0 1 0:     0.000 sec done=         6 (=100.0%) skipped=         0 
    -> L=1 1 0 0:     0.000 sec done=         6 (=100.0%) skipped=         0 
    -> L=1 1 1 0:     0.000 sec done=         3 (=100.0%) skipped=         0 
    -> L=1 1 1 1:     0.000 sec done=         1 (=100.0%) skipped=         0 
    -> RHF LowL loop time =     0.000 sec
    ->Total SHARK integral loop time =    0.000 sec
    ->Total LIBINT loop time =    0.000 sec

                         ----------------------------
                         !        ITERATION     6   !
                         ----------------------------
   Total Energy        :     -98.319309731530 Eh
   Energy Change       :      -0.029002295284 Eh
   MAX-DP              :       0.003485811376
   RMS-DP              :       0.000772959746
   Actual Damping      :       0.0000
   Actual Level Shift  :       0.2500 Eh
   DIIS-Error          :       0.003749007673
   DIIS coefficients:
      0.00286   0.00231  -0.05398  -0.15781   1.20662

===> SHARK/Fock/General/Sym: HFTyp=1 DoJ=1 DoX=1 facj= 2.000 facx=-0.500 NFock=1 NumOp=1 NMat=1 RangeSep=0 GeneralContraction=0 PGCOpt=-1
    -> L=0 0 0 0:     0.000 sec done=        21 (=100.0%) skipped=         0 
    -> L=1 0 0 0:     0.000 sec done=        18 (=100.0%) skipped=         0 
    -> L=1 0 1 0:     0.000 sec done=         6 (=100.0%) skipped=         0 
    -> L=1 1 0 0:     0.000 sec done=         6 (=100.0%) skipped=         0 
    -> L=1 1 1 0:     0.000 sec done=         3 (=100.0%) skipped=         0 
    -> L=1 1 1 1:     0.000 sec done=         1 (=100.0%) skipped=         0 
    -> RHF LowL loop time =     0.000 sec
    ->Total SHARK integral loop time =    0.000 sec
    ->Total LIBINT loop time =    0.000 sec
                      *** Initiating the SOSCF procedure ***
                           *** Shutting down DIIS ***
                      *** Re-Reading the Fockian *** 
                      *** Removing any level shift *** 

                         ----------------------------
                         !        ITERATION     7   !
                         ----------------------------
   Total Energy        :     -98.328285416068 Eh
   Energy Change       :      -0.008975684538 Eh
   MAX-DP              :       0.001131485948
   RMS-DP              :       0.000250513703
   Orbital gradient    :       0.000421750884
   Orbital Rotation    :       0.000421750884
   Actual Damping      :       0.0000

               *** Restarting incremental Fock matrix formation ***
===> SHARK/Fock/General/Sym: HFTyp=1 DoJ=1 DoX=1 facj= 2.000 facx=-0.500 NFock=1 NumOp=1 NMat=1 RangeSep=0 GeneralContraction=0 PGCOpt=-1
    -> L=0 0 0 0:     0.000 sec done=        21 (=100.0%) skipped=         0 
    -> L=1 0 0 0:     0.000 sec done=        18 (=100.0%) skipped=         0 
    -> L=1 0 1 0:     0.000 sec done=         6 (=100.0%) skipped=         0 
    -> L=1 1 0 0:     0.000 sec done=         6 (=100.0%) skipped=         0 
    -> L=1 1 1 0:     0.000 sec done=         3 (=100.0%) skipped=         0 
    -> L=1 1 1 1:     0.000 sec done=         1 (=100.0%) skipped=         0 
    -> RHF LowL loop time =     0.000 sec
    ->Total SHARK integral loop time =    0.000 sec
    ->Total LIBINT loop time =    0.000 sec

                         ----------------------------
                         !        ITERATION     8   !
                         ----------------------------
   Total Energy        :     -98.332623197053 Eh
   Energy Change       :      -0.004337780986 Eh
   MAX-DP              :       0.000832099145
   RMS-DP              :       0.000182791123
   Orbital gradient    :       0.000207061068
   Orbital Rotation    :       0.000412181263
   Actual Damping      :       0.0000

===> SHARK/Fock/General/Sym: HFTyp=1 DoJ=1 DoX=1 facj= 2.000 facx=-0.500 NFock=1 NumOp=1 NMat=1 RangeSep=0 GeneralContraction=0 PGCOpt=-1
    -> L=0 0 0 0:     0.000 sec done=        21 (=100.0%) skipped=         0 
    -> L=1 0 0 0:     0.000 sec done=        18 (=100.0%) skipped=         0 
    -> L=1 0 1 0:     0.000 sec done=         6 (=100.0%) skipped=         0 
    -> L=1 1 0 0:     0.000 sec done=         6 (=100.0%) skipped=         0 
    -> L=1 1 1 0:     0.000 sec done=         3 (=100.0%) skipped=         0 
    -> L=1 1 1 1:     0.000 sec done=         1 (=100.0%) skipped=         0 
    -> RHF LowL loop time =     0.000 sec
    ->Total SHARK integral loop time =    0.000 sec
    ->Total LIBINT loop time =    0.000 sec

                         ----------------------------
                         !        ITERATION     9   !
                         ----------------------------
   Total Energy        :     -98.332623280725 Eh
   Energy Change       :      -0.000000083671 Eh
   MAX-DP              :       0.000281754599
   RMS-DP              :       0.000061785056
   Orbital gradient    :       0.000106366798
   Orbital Rotation    :       0.000139555168
   Actual Damping      :       0.0000

===> SHARK/Fock/General/Sym: HFTyp=1 DoJ=1 DoX=1 facj= 2.000 facx=-0.500 NFock=1 NumOp=1 NMat=1 RangeSep=0 GeneralContraction=0 PGCOpt=-1
    -> L=0 0 0 0:     0.000 sec done=        21 (=100.0%) skipped=         0 
    -> L=1 0 0 0:     0.000 sec done=        18 (=100.0%) skipped=         0 
    -> L=1 0 1 0:     0.000 sec done=         6 (=100.0%) skipped=         0 
    -> L=1 1 0 0:     0.000 sec done=         6 (=100.0%) skipped=         0 
    -> L=1 1 1 0:     0.000 sec done=         3 (=100.0%) skipped=         0 
    -> L=1 1 1 1:     0.000 sec done=         1 (=100.0%) skipped=         0 
    -> RHF LowL loop time =     0.000 sec
    ->Total SHARK integral loop time =    0.000 sec
    ->Total LIBINT loop time =    0.000 sec
                 **** Energy Check signals convergence ****
              ***Rediagonalizing the Fockian in SOSCF/NRSCF***

               *****************************************************
               *                     SUCCESS                       *
               *           SCF CONVERGED AFTER  10 CYCLES          *
               *****************************************************


----------------
TOTAL SCF ENERGY
----------------

Total Energy       :          -98.33262331 Eh           -2675.76671 eV

Components:
Nuclear Repulsion  :            2.74817939 Eh              74.78176 eV
Electronic Energy  :         -101.08080270 Eh           -2750.54848 eV
One Electron Energy:         -144.94033143 Eh           -3944.02693 eV
Two Electron Energy:           43.85952873 Eh            1193.47845 eV

Virial components:
Potential Energy   :         -195.92874795 Eh           -5331.49228 eV
Kinetic Energy     :           97.59612464 Eh            2655.72557 eV
Virial Ratio       :            2.00754639


---------------
SCF CONVERGENCE
---------------

  Last Energy change         ...   -2.9854e-08  Tolerance :   1.0000e-06
  Last MAX-Density change    ...    2.7758e-06  Tolerance :   1.0000e-05
  Last RMS-Density change    ...    6.3390e-07  Tolerance :   1.0000e-06
  Last Orbital Gradient      ...    2.7607e-06  Tolerance :   5.0000e-05
  Last Orbital Rotation      ...    1.7942e-06  Tolerance :   5.0000e-05

             **** THE GBW FILE WAS UPDATED (hf.gbw) ****
             **** DENSITY hf.scfp WAS UPDATED ****
             **** ENERGY FILE WAS UPDATED (hf.en.tmp) ****
             **** THE GBW FILE WAS UPDATED (hf.gbw) ****
             **** DENSITY hf.scfp WAS UPDATED ****
----------------
ORBITAL ENERGIES
----------------

  NO   OCC          E(Eh)            E(eV) 
   0   2.0000     -25.931890      -705.6426 
   1   2.0000      -1.395093       -37.9624 
   2   2.0000      -0.465797       -12.6750 
   3   2.0000      -0.465797       -12.6750 
   4   2.0000      -0.352057        -9.5800 
   5   0.0000       0.150323         4.0905 
------------------
MOLECULAR ORBITALS
------------------
                      0         1         2         3         4         5   
                 -25.93189  -1.39509  -0.46580  -0.46580  -0.35206   0.15032
                   2.00000   2.00000   2.00000   2.00000   2.00000   0.00000
                  --------  --------  --------  --------  --------  --------
  0H   1s         0.001117  0.047737 -0.000000  0.000000 -0.653798  0.769186
  1F   1s        -0.995102 -0.262941  0.000000  0.000000 -0.021401  0.023290
  1F   2s        -0.019845  1.023111 -0.000000 -0.000000  0.105999 -0.115740
  1F   1pz        0.000379 -0.000850  0.000000 -0.000000  0.696289  0.724861
  1F   1px       -0.000000 -0.000000 -0.780737 -0.624860 -0.000000 -0.000000
  1F   1py       -0.000000 -0.000000 -0.624860  0.780737  0.000000  0.000000


-------
DENSITY
-------
                  0          1          2          3          4          5    
      0       0.859464   0.000657  -0.040969  -0.910544   0.000000   0.000000
      1       0.000657   2.119646  -0.503078  -0.030110   0.000000   0.000000
      2      -0.040969  -0.503078   2.116771   0.145858   0.000000   0.000000
      3      -0.910544  -0.030110   0.145858   0.969638   0.000000  -0.000000
      4       0.000000   0.000000   0.000000   0.000000   2.000000   0.000000
      5       0.000000   0.000000   0.000000  -0.000000   0.000000   2.000000



                    ********************************
                    * MULLIKEN POPULATION ANALYSIS *
                    ********************************

-----------------------
MULLIKEN ATOMIC CHARGES
-----------------------
   0 H :    0.053568
   1 F :   -0.053568
Sum of atomic charges:   -0.0000000

------------------------
MULLIKEN ORBITAL CHARGES
------------------------
The uncorrected charge=density diagonal is given in parenthesis)
   0:   0H   1s           0.946432 (  0.859464)
   1:   1F   1s           1.999924 (  2.119646)
   2:   1F   2s           1.992825 (  2.116771)
   3:   1F   1pz          1.060819 (  0.969638)
   4:   1F   1px          2.000000 (  2.000000)
   5:   1F   1py          2.000000 (  2.000000)
Sum of orbital charges :   10.0000000

--------------------------------
MULLIKEN REDUCED ORBITAL CHARGES
--------------------------------
  0 H s       :     0.946432  s :     0.946432
  1 F s       :     3.992749  s :     3.992749
      pz      :     1.060819  p :     5.060819
      px      :     2.000000
      py      :     2.000000

------------------------
MULLIKEN OVERLAP CHARGES
------------------------
B(  0-H ,  1-F ) :   0.1739 

-----------------------------------
MULLIKEN ORBITAL POPULATIONS PER MO
-----------------------------------
THRESHOLD FOR PRINTING IS 0.1%
                      0         1         2         3         4         5   
                 -25.93189  -1.39509  -0.46580  -0.46580  -0.35206   0.15032
                   2.00000   2.00000   2.00000   2.00000   2.00000   0.00000
                  --------  --------  --------  --------  --------  --------
  0H   1s             -0.0       0.7       0.0       0.0      46.6      52.7
  1F   1s             99.5       0.5       0.0       0.0       0.0       0.0
  1F   2s              0.5      98.8       0.0       0.0       0.4       0.4
  1F   1pz             0.0       0.0       0.0       0.0      53.0      47.0
  1F   1px             0.0       0.0      61.0      39.0       0.0       0.0
  1F   1py             0.0       0.0      39.0      61.0       0.0       0.0



                     *******************************
                     * LOEWDIN POPULATION ANALYSIS *
                     *******************************

----------------------
LOEWDIN ATOMIC CHARGES
----------------------
   0 H :    0.050730
   1 F :   -0.050730

-----------------------
LOEWDIN ORBITAL CHARGES
-----------------------
   0:   0H   1s           0.949270
   1:   1F   1s           1.999810
   2:   1F   2s           1.989864
   3:   1F   1pz          1.061057
   4:   1F   1px          2.000000
   5:   1F   1py          2.000000

-------------------------------
LOEWDIN REDUCED ORBITAL CHARGES
-------------------------------
  0 H s       :     0.949270  s :     0.949270
  1 F s       :     3.989673  s :     3.989673
      pz      :     1.061057  p :     5.061057
      px      :     2.000000
      py      :     2.000000

---------------------------------
LOEWDIN BOND ORDERS (THRESH 0.050000)
---------------------------------
B(  0-H ,  1-F ) :   0.9974 

----------------------------------
LOEWDIN ORBITAL POPULATIONS PER MO
----------------------------------
THRESHOLD FOR PRINTING IS 0.1%
                      0         1         2         3         4         5   
                 -25.93189  -1.39509  -0.46580  -0.46580  -0.35206   0.15032
                   2.00000   2.00000   2.00000   2.00000   2.00000   0.00000
                  --------  --------  --------  --------  --------  --------
  0H   1s              0.0       1.0       0.0       0.0      46.5      52.5
  1F   1s             98.1       1.9       0.0       0.0       0.0       0.0
  1F   2s              1.9      97.1       0.0       0.0       0.5       0.5
  1F   1pz             0.0       0.0       0.0       0.0      53.1      46.9
  1F   1px             0.0       0.0      61.0      39.0       0.0       0.0
  1F   1py             0.0       0.0      39.0      61.0       0.0       0.0


------------------------------------------
LOEWDIN REDUCED ORBITAL POPULATIONS PER MO
-------------------------------------------
THRESHOLD FOR PRINTING IS 0.1%
                      0         1         2         3         4         5   
                 -25.93189  -1.39509  -0.46580  -0.46580  -0.35206   0.15032
                   2.00000   2.00000   2.00000   2.00000   2.00000   0.00000
                  --------  --------  --------  --------  --------  --------
 0 H  s               0.0       1.0       0.0       0.0      46.5      52.5
 1 F  s             100.0      99.0       0.0       0.0       0.5       0.5
 1 F  pz              0.0       0.0       0.0       0.0      53.1      46.9
 1 F  px              0.0       0.0      61.0      39.0       0.0       0.0
 1 F  py              0.0       0.0      39.0      61.0       0.0       0.0



                      *****************************
                      * MAYER POPULATION ANALYSIS *
                      *****************************

  NA   - Mulliken gross atomic population
  ZA   - Total nuclear charge
  QA   - Mulliken gross atomic charge
  VA   - Mayer's total valence
  BVA  - Mayer's bonded valence
  FA   - Mayer's free valence

  ATOM       NA         ZA         QA         VA         BVA        FA
  0 H      0.9464     1.0000     0.0536     0.9971     0.9971     0.0000
  1 F      9.0536     9.0000    -0.0536     0.9971     0.9971    -0.0000

  Mayer bond orders larger than 0.100000
B(  0-H ,  1-F ) :   0.9971 

-------
TIMINGS
-------

Total SCF time: 0 days 0 hours 0 min 0 sec 

Total time                  ....       0.066 sec
Sum of individual times     ....       0.014 sec  ( 21.4%)

Fock matrix formation       ....       0.006 sec  (  9.8%)
Diagonalization             ....       0.000 sec  (  0.2%)
Density matrix formation    ....       0.000 sec  (  0.0%)
Population analysis         ....       0.001 sec  (  1.2%)
Initial guess               ....       0.002 sec  (  2.4%)
Orbital Transformation      ....       0.000 sec  (  0.0%)
Orbital Orthonormalization  ....       0.000 sec  (  0.0%)
DIIS solution               ....       0.000 sec  (  0.5%)
SOSCF solution              ....       0.000 sec  (  0.2%)

Maximum memory used throughout the entire SCF-calculation: 223.5 MB

-------------------------   --------------------
FINAL SINGLE POINT ENERGY       -98.332623310579
-------------------------   --------------------


                            ***************************************
                            *     ORCA property calculations      *
                            ***************************************

                                    ---------------------
                                    Active property flags
                                    ---------------------
   (+) Dipole Moment


------------------------------------------------------------------------------
                       ORCA ELECTRIC PROPERTIES CALCULATION
------------------------------------------------------------------------------

Dipole Moment Calculation                       ... on
Quadrupole Moment Calculation                   ... off
Polarizability Calculation                      ... off
GBWName                                         ... hf.gbw
Electron density                                ... hf.scfp
SHARK General Contraction Test:  Segmented basis detected
   -> Pre-screening matrix found on disk - Trying to read with NShells=4
   -> Passing Pre-screening matrix on to SHARK ...ok
   -> Leaving CheckPreScreeningMatrix
----------------------
SHARK INTEGRAL PACKAGE
----------------------

Number of atoms                             ...      2
Number of basis functions                   ...      6
Number of shells                            ...      4
Maximum angular momentum                    ...      1
Integral batch strategy                     ... SHARK/LIBINT Hybrid
RI-J (if used) integral strategy            ... SPLIT-RIJ (Revised 2003 algorithm where possible)
Printlevel                                  ...      2
Contraction scheme used                     ... SEGMENTED contraction
Coulomb Range Separation                    ... NOT USED
Exchange Range Separation                   ... NOT USED
Finite Nucleus Model                        ... NOT USED
Auxiliary Coulomb fitting basis             ... NOT available
Auxiliary J/K fitting basis                 ... NOT available
Auxiliary Correlation fitting basis         ... NOT available
Auxiliary 'external' fitting basis          ... NOT available
Integral threshold                          ...     1.000000e-10
Primitive cut-off                           ...     1.000000e-11
Primitive pair pre-selection threshold      ...     1.000000e-11

The origin for moment calculation is the CENTER OF MASS  = ( 0.000000,  0.000000  3.109890)

-------------
DIPOLE MOMENT
-------------
                                X             Y             Z
Electronic contribution:     -0.00000      -0.00000       1.30645
Nuclear contribution   :      0.00000       0.00000      -1.62484
                        -----------------------------------------
Total Dipole Moment    :     -0.00000      -0.00000      -0.31839
                        -----------------------------------------
Magnitude (a.u.)       :      0.31839
Magnitude (Debye)      :      0.80929



--------------------
Rotational spectrum 
--------------------
 
Rotational constants in cm-1:     0.000000     5.863968     5.863968 
Rotational constants in MHz :     0.000000 175797.351371 175797.351371 

 Dipole components along the rotational axes: 
x,y,z [a.u.] :    -0.318392    -0.000000    -0.000000 
x,y,z [Debye]:    -0.809289    -0.000000    -0.000000 

 

Timings for individual modules:

Sum of individual times         ...        0.111 sec (=   0.002 min)
GTO integral calculation        ...        0.035 sec (=   0.001 min)  31.3 %
SCF iterations                  ...        0.076 sec (=   0.001 min)  68.7 %
                             ****ORCA TERMINATED NORMALLY****
TOTAL RUN TIME: 0 days 0 hours 0 minutes 0 seconds 141 msec
