
                                 *****************
                                 * O   R   C   A *
                                 *****************

                                            #,                                       
                                            ###                                      
                                            ####                                     
                                            #####                                    
                                            ######                                   
                                           ########,                                 
                                     ,,################,,,,,                         
                               ,,#################################,,                 
                          ,,##########################################,,             
                       ,#########################################, ''#####,          
                    ,#############################################,,   '####,        
                  ,##################################################,,,,####,       
                ,###########''''           ''''###############################       
              ,#####''   ,,,,##########,,,,          '''####'''          '####       
            ,##' ,,,,###########################,,,                        '##       
           ' ,,###''''                  '''############,,,                           
         ,,##''                                '''############,,,,        ,,,,,,###''
      ,#''                                            '''#######################'''  
     '                                                          ''''####''''         
             ,#######,   #######,   ,#######,      ##                                
            ,#'     '#,  ##    ##  ,#'     '#,    #''#        ######   ,####,        
            ##       ##  ##   ,#'  ##            #'  '#       #        #'  '#        
            ##       ##  #######   ##           ,######,      #####,   #    #        
            '#,     ,#'  ##    ##  '#,     ,#' ,#      #,         ##   #,  ,#        
             '#######'   ##     ##  '#######'  #'      '#     #####' # '####'        



                  #######################################################
                  #                        -***-                        #
                  #          Department of theory and spectroscopy      #
                  #    Directorship and core code : Frank Neese         #
                  #        Max Planck Institute fuer Kohlenforschung    #
                  #                Kaiser Wilhelm Platz 1               #
                  #                 D-45470 Muelheim/Ruhr               #
                  #                      Germany                        #
                  #                                                     #
                  #                  All rights reserved                #
                  #                        -***-                        #
                  #######################################################


                         Program Version 5.0.4 -  RELEASE  -


 With contributions from (in alphabetic order):
   Daniel Aravena         : Magnetic Suceptibility
   Michael Atanasov       : Ab Initio Ligand Field Theory (pilot matlab implementation)
   Alexander A. Auer      : GIAO ZORA, VPT2 properties, NMR spectrum
   Ute Becker             : Parallelization
   Giovanni Bistoni       : ED, misc. LED, open-shell LED, HFLD
   Martin Brehm           : Molecular dynamics
   Dmytro Bykov           : SCF Hessian
   Vijay G. Chilkuri      : MRCI spin determinant printing, contributions to CSF-ICE
   Dipayan Datta          : RHF DLPNO-CCSD density
   Achintya Kumar Dutta   : EOM-CC, STEOM-CC
   Dmitry Ganyushin       : Spin-Orbit,Spin-Spin,Magnetic field MRCI
   Miquel Garcia          : C-PCM and meta-GGA Hessian, CC/C-PCM, Gaussian charge scheme
   Yang Guo               : DLPNO-NEVPT2, F12-NEVPT2, CIM, IAO-localization
   Andreas Hansen         : Spin unrestricted coupled pair/coupled cluster methods
   Benjamin Helmich-Paris : MC-RPA, TRAH-SCF, COSX integrals
   Lee Huntington         : MR-EOM, pCC
   Robert Izsak           : Overlap fitted RIJCOSX, COSX-SCS-MP3, EOM
   Marcus Kettner         : VPT2
   Christian Kollmar      : KDIIS, OOCD, Brueckner-CCSD(T), CCSD density, CASPT2, CASPT2-K
   Simone Kossmann        : Meta GGA functionals, TD-DFT gradient, OOMP2, MP2 Hessian
   Martin Krupicka        : Initial AUTO-CI
   Lucas Lang             : DCDCAS
   Marvin Lechner         : AUTO-CI (C++ implementation), FIC-MRCC
   Dagmar Lenk            : GEPOL surface, SMD
   Dimitrios Liakos       : Extrapolation schemes; Compound Job, initial MDCI parallelization
   Dimitrios Manganas     : Further ROCIS development; embedding schemes
   Dimitrios Pantazis     : SARC Basis sets
   Anastasios Papadopoulos: AUTO-CI, single reference methods and gradients
   Taras Petrenko         : DFT Hessian,TD-DFT gradient, ASA, ECA, R-Raman, ABS, FL, XAS/XES, NRVS
   Peter Pinski           : DLPNO-MP2, DLPNO-MP2 Gradient
   Christoph Reimann      : Effective Core Potentials
   Marius Retegan         : Local ZFS, SOC
   Christoph Riplinger    : Optimizer, TS searches, QM/MM, DLPNO-CCSD(T), (RO)-DLPNO pert. Triples
   Tobias Risthaus        : Range-separated hybrids, TD-DFT gradient, RPA, STAB
   Michael Roemelt        : Original ROCIS implementation
   Masaaki Saitow         : Open-shell DLPNO-CCSD energy and density
   Barbara Sandhoefer     : DKH picture change effects
   Avijit Sen             : IP-ROCIS
   Kantharuban Sivalingam : CASSCF convergence, NEVPT2, FIC-MRCI
   Bernardo de Souza      : ESD, SOC TD-DFT
   Georgi Stoychev        : AutoAux, RI-MP2 NMR, DLPNO-MP2 response
   Willem Van den Heuvel  : Paramagnetic NMR
   Boris Wezisla          : Elementary symmetry handling
   Frank Wennmohs         : Technical directorship


 We gratefully acknowledge several colleagues who have allowed us to
 interface, adapt or use parts of their codes:
   Stefan Grimme, W. Hujo, H. Kruse, P. Pracht,  : VdW corrections, initial TS optimization,
                  C. Bannwarth, S. Ehlert          DFT functionals, gCP, sTDA/sTD-DF
   Ed Valeev, F. Pavosevic, A. Kumar             : LibInt (2-el integral package), F12 methods
   Garnet Chan, S. Sharma, J. Yang, R. Olivares  : DMRG
   Ulf Ekstrom                                   : XCFun DFT Library
   Mihaly Kallay                                 : mrcc  (arbitrary order and MRCC methods)
   Jiri Pittner, Ondrej Demel                    : Mk-CCSD
   Frank Weinhold                                : gennbo (NPA and NBO analysis)
   Christopher J. Cramer and Donald G. Truhlar   : smd solvation model
   Lars Goerigk                                  : TD-DFT with DH, B97 family of functionals
   V. Asgeirsson, H. Jonsson                     : NEB implementation
   FAccTs GmbH                                   : IRC, NEB, NEB-TS, DLPNO-Multilevel, CI-OPT
                                                   MM, QMMM, 2- and 3-layer-ONIOM, Crystal-QMMM,
                                                   LR-CPCM, SF, NACMEs, symmetry and pop. for TD-DFT,
                                                   nearIR, NL-DFT gradient (VV10), updates on ESD,
                                                   ML-optimized integration grids
   S Lehtola, MJT Oliveira, MAL Marques          : LibXC Library
   Liviu Ungur et al                             : ANISO software


 Your calculation uses the libint2 library for the computation of 2-el integrals
 For citations please refer to: http://libint.valeyev.net

 Your ORCA version has been built with support for libXC version: 5.1.0
 For citations please refer to: https://tddft.org/programs/libxc/

 This ORCA versions uses:
   CBLAS   interface :  Fast vector & matrix operations
   LAPACKE interface :  Fast linear algebra routines
   SCALAPACK package :  Parallel linear algebra routines
   Shared memory     :  Shared parallel matrices
   BLAS/LAPACK       :  OpenBLAS 0.3.15  USE64BITINT DYNAMIC_ARCH NO_AFFINITY Zen SINGLE_THREADED
        Core in use  :  Zen
   Copyright (c) 2011-2014, The OpenBLAS Project




***************************************
The coordinates will be read from file: n2-b.xyz
***************************************


================================================================================

----- Orbital basis set information -----
Your calculation utilizes the basis: STO-3G
   H-Ne       : W. J. Hehre, R. F. Stewart and J. A. Pople, J. Chem. Phys. 2657 (1969).
   Na-Ar      : W. J. Hehre, R. Ditchfield, R. F. Stewart and J. A. Pople, J. Chem. Phys. 2769 (1970).
   K,Ca,Ga-Kr : W. J. Pietro, B. A. Levy, W. J. Hehre and R. F. Stewart, J. Am. Chem. Soc. 19, 2225 (1980).
   Sc-Zn,Y-Cd : W. J. Pietro and W. J. Hehre, J. Comp. Chem. 4, 241 (1983).

================================================================================
                                        WARNINGS
                       Please study these warnings very carefully!
================================================================================

WARNING: Old DensityContainer found on disk!
         Will remove this file - 
         If you want to keep old densities, please start your calculation with a different basename. 


INFO   : the flag for use of the SHARK integral package has been found!

================================================================================
                                       INPUT FILE
================================================================================
NAME = n2-b.inp
|  1> ! HF STO-3G LARGEPRINT
|  2> 
|  3> %output
|  4> 	Print[ P_Basis ] 2
|  5> 	Print[ P_MOs ] 1
|  6> end
|  7> 
|  8> * xyzfile 0 1 n2-b.xyz
|  9> 
| 10>                          ****END OF INPUT****
================================================================================

                       ****************************
                       * Single Point Calculation *
                       ****************************

---------------------------------
CARTESIAN COORDINATES (ANGSTROEM)
---------------------------------
  N      0.000000    0.000000    0.000000
  N      0.000000    0.000000    1.097519

----------------------------
CARTESIAN COORDINATES (A.U.)
----------------------------
  NO LB      ZA    FRAG     MASS         X           Y           Z
   0 N     7.0000    0    14.007    0.000000    0.000000    0.000000
   1 N     7.0000    0    14.007    0.000000    0.000000    2.074011

--------------------------------
INTERNAL COORDINATES (ANGSTROEM)
--------------------------------
 N      0   0   0     0.000000000000     0.00000000     0.00000000
 N      1   0   0     1.097519320000     0.00000000     0.00000000

---------------------------
INTERNAL COORDINATES (A.U.)
---------------------------
 N      0   0   0     0.000000000000     0.00000000     0.00000000
 N      1   0   0     2.074010941487     0.00000000     0.00000000

---------------------
BASIS SET INFORMATION
---------------------
There are 1 groups of distinct atoms

 Group   1 Type N   : 6s3p contracted to 2s1p pattern {33/3}

Atom   0N    basis set group =>   1
Atom   1N    basis set group =>   1

-------------------------
BASIS SET IN INPUT FORMAT
-------------------------

 # Basis set for element : N 
 NewGTO N 
 S 3 
   1      99.1061690000      0.1543289703
   2      18.0523120000      0.5353281411
   3       4.8856602000      0.4446345409
 S 3 
   1       3.7804559000     -0.0999672284
   2       0.8784966000      0.3995128238
   3       0.2857144000      0.7001154591
 P 3 
   1       3.7804559000      0.1559162685
   2       0.8784966000      0.6076837143
   3       0.2857144000      0.3919573863
  end;


Checking for AutoStart:
The File: n2-b.gbw exists
Trying to determine its content:
     ... Fine, the file contains calculation information
     ... Fine, the calculation information was read
     ... Fine, the file contains a basis set
     ... Fine, the basis set was read
     ... Fine, the file contains a geometry
     ... Fine, the geometry was read
     ... Fine, the file contains a set of orbitals
     ... Fine, the orbitals can be read
     => possible old guess file was deleted
     => GBW file was renamed to GES file
     => GES file is set as startup file
     => Guess is set to MORead
     ... now leaving AutoStart

------------------------------------------------------------------------------
                           ORCA GTO INTEGRAL CALCULATION
------------------------------------------------------------------------------
------------------------------------------------------------------------------
                   ___                                                        
                  /   \      - P O W E R E D   B Y -                         
                 /     \                                                     
                 |  |  |   _    _      __       _____    __    __             
                 |  |  |  | |  | |    /  \     |  _  \  |  |  /  |          
                  \  \/   | |  | |   /    \    | | | |  |  | /  /          
                 / \  \   | |__| |  /  /\  \   | |_| |  |  |/  /          
                |  |  |   |  __  | /  /__\  \  |    /   |      \           
                |  |  |   | |  | | |   __   |  |    \   |  |\   \          
                \     /   | |  | | |  |  |  |  | |\  \  |  | \   \       
                 \___/    |_|  |_| |__|  |__|  |_| \__\ |__|  \__/        
                                                                              
                      - O R C A' S   B I G   F R I E N D -                    
                                      &                                       
                       - I N T E G R A L  F E E D E R -                       
                                                                              
 v1 FN, 2020, v2 2021                                                         
------------------------------------------------------------------------------


Reading SHARK input file n2-b.SHARKINP.tmp ... SHARK General Contraction Test:  Segmented basis detected
   -> Pre-screening matrix *NOT* found on disk - recalculating with NShells=6
   -> Leaving CheckPreScreeningMatrix
ok
----------------------
SHARK INTEGRAL PACKAGE
----------------------

Number of atoms                             ...      2
Number of basis functions                   ...     10
Number of shells                            ...      6
Maximum angular momentum                    ...      1
Integral batch strategy                     ... SHARK/LIBINT Hybrid
RI-J (if used) integral strategy            ... SPLIT-RIJ (Revised 2003 algorithm where possible)
Printlevel                                  ...      2
Contraction scheme used                     ... SEGMENTED contraction
Coulomb Range Separation                    ... NOT USED
Exchange Range Separation                   ... NOT USED
Finite Nucleus Model                        ... NOT USED
Auxiliary Coulomb fitting basis             ... NOT available
Auxiliary J/K fitting basis                 ... NOT available
Auxiliary Correlation fitting basis         ... NOT available
Auxiliary 'external' fitting basis          ... NOT available
Integral threshold                          ...     1.000000e-10
Primitive cut-off                           ...     1.000000e-11
Primitive pair pre-selection threshold      ...     1.000000e-11

Calculating pre-screening integrals         ... done (  0.0 sec) Dimension = 6
Organizing shell pair data                  ... done (  0.0 sec)
Shell pair information
Total number of shell pairs                 ...        21
Shell pairs after pre-screening             ...        21
Total number of primitive shell pairs       ...       189
Primitive shell pairs kept                  ...       185
          la=0 lb=0:     10 shell pairs
          la=1 lb=0:      8 shell pairs
          la=1 lb=1:      3 shell pairs

Calculating one electron integrals          ... done (  0.0 sec)
Calculating Nuclear repulsion               ... done (  0.0 sec) ENN=     23.625719141509 Eh

SHARK setup successfully completed in   0.0 seconds

Maximum memory used throughout the entire GTOINT-calculation: 3.9 MB
-------------------------------------------------------------------------------
                                 ORCA SCF
-------------------------------------------------------------------------------

------------
SCF SETTINGS
------------
Hamiltonian:
 Ab initio Hamiltonian  Method          .... Hartree-Fock(GTOs)


General Settings:
 Integral files         IntName         .... n2-b
 Hartree-Fock type      HFTyp           .... RHF
 Total Charge           Charge          ....    0
 Multiplicity           Mult            ....    1
 Number of Electrons    NEL             ....   14
 Basis Dimension        Dim             ....   10
 Nuclear Repulsion      ENuc            ....     23.6257191415 Eh

Convergence Acceleration:
 DIIS                   CNVDIIS         .... on
   Start iteration      DIISMaxIt       ....    12
   Startup error        DIISStart       ....  0.200000
   # of expansion vecs  DIISMaxEq       ....     5
   Bias factor          DIISBfac        ....   1.050
   Max. coefficient     DIISMaxC        ....  10.000
 Trust-Rad. Augm. Hess. CNVTRAH         .... auto
   Auto Start mean grad. ratio tolernc. ....  1.125000
   Auto Start start iteration           ....     1
   Auto Start num. interpolation iter.  ....    10
   Max. Number of Micro iterations      ....    16
   Max. Number of Macro iterations      .... Maxiter - #DIIS iter
   Number of Davidson start vectors     ....     2
   Converg. threshold I  (grad. norm)   ....   5.000e-05
   Converg. threshold II (energy diff.) ....   1.000e-06
   Grad. Scal. Fac. for Micro threshold ....   0.100
   Minimum threshold for Micro iter.    ....   0.010
   NR start threshold (gradient norm)   ....   0.001
   Initial trust radius                 ....   0.400
   Minimum AH scaling param. (alpha)    ....   1.000
   Maximum AH scaling param. (alpha)    .... 1000.000
   Orbital update algorithm             .... Taylor
   White noise on init. David. guess    .... on
   Maximum white noise                  ....   0.010
   Quad. conv. algorithm                .... NR
 SOSCF                  CNVSOSCF        .... on
   Start iteration      SOSCFMaxIt      ....   150
   Startup grad/error   SOSCFStart      ....  0.003300
 Level Shifting         CNVShift        .... on
   Level shift para.    LevelShift      ....    0.2500
   Turn off err/grad.   ShiftErr        ....    0.0010
 Zerner damping         CNVZerner       .... off
 Static damping         CNVDamp         .... on
   Fraction old density DampFac         ....    0.7000
   Max. Damping (<1)    DampMax         ....    0.9800
   Min. Damping (>=0)   DampMin         ....    0.0000
   Turn off err/grad.   DampErr         ....    0.1000
 Fernandez-Rico         CNVRico         .... off

SCF Procedure:
 Maximum # iterations   MaxIter         ....   125
 SCF integral mode      SCFMode         .... Direct
   Integral package                     .... SHARK and LIBINT hybrid scheme
 Reset frequency        DirectResetFreq ....    20
 Integral Threshold     Thresh          ....  1.000e-10 Eh
 Primitive CutOff       TCut            ....  1.000e-11 Eh

Convergence Tolerance:
 Convergence Check Mode ConvCheckMode   .... Total+1el-Energy
 Convergence forced     ConvForced      .... 0
 Energy Change          TolE            ....  1.000e-06 Eh
 1-El. energy change                    ....  1.000e-03 Eh
 Orbital Gradient       TolG            ....  5.000e-05
 Orbital Rotation angle TolX            ....  5.000e-05
 DIIS Error             TolErr          ....  1.000e-06


Diagonalization of the overlap matrix:
Smallest eigenvalue                        ... 1.622e-01
Time for diagonalization                   ...    0.000 sec
Threshold for overlap eigenvalues          ... 1.000e-08
Number of eigenvalues below threshold      ... 0
Time for construction of square roots      ...    0.000 sec
Total time needed                          ...    0.000 sec

SHARK General Contraction Test:  Segmented basis detected
   -> Pre-screening matrix found on disk - Trying to read with NShells=6
   -> Passing Pre-screening matrix on to SHARK ...ok
   -> Leaving CheckPreScreeningMatrix
----------------------
SHARK INTEGRAL PACKAGE
----------------------

Number of atoms                             ...      2
Number of basis functions                   ...     10
Number of shells                            ...      6
Maximum angular momentum                    ...      1
Integral batch strategy                     ... SHARK/LIBINT Hybrid
RI-J (if used) integral strategy            ... SPLIT-RIJ (Revised 2003 algorithm where possible)
Printlevel                                  ...      2
Contraction scheme used                     ... SEGMENTED contraction
Coulomb Range Separation                    ... NOT USED
Exchange Range Separation                   ... NOT USED
Finite Nucleus Model                        ... NOT USED
Auxiliary Coulomb fitting basis             ... NOT available
Auxiliary J/K fitting basis                 ... NOT available
Auxiliary Correlation fitting basis         ... NOT available
Auxiliary 'external' fitting basis          ... NOT available
Integral threshold                          ...     1.000000e-10
Primitive cut-off                           ...     1.000000e-11
Primitive pair pre-selection threshold      ...     1.000000e-11

---------------------
INITIAL GUESS: MOREAD
---------------------
Guess MOs are being read from file: n2-b.ges
Input Geometry matches current geometry (good)
Input basis set matches current basis set (good)
MOs were renormalized
MOs were reorthogonalized (Cholesky)
                      ------------------
                      INITIAL GUESS DONE (   0.0 sec)
                      ------------------
----------------------
INITIAL GUESS ORBITALS
----------------------
                      0         1         2         3         4         5   
                 -15.51806 -15.51612  -1.44282  -0.72249  -0.57311  -0.57311
                   2.00000   2.00000   2.00000   2.00000   2.00000   2.00000
                  --------  --------  --------  --------  --------  --------
  0N   1s         0.703074 -0.702848  0.175812  0.171067  0.000000  0.000000
  0N   2s         0.012841 -0.026905 -0.488802 -0.742025 -0.000000 -0.000000
  0N   1pz        0.002087 -0.009859 -0.240161  0.264234 -0.000000  0.000000
  0N   1px       -0.000000 -0.000000 -0.000000  0.000000 -0.497813  0.377700
  0N   1py       -0.000000 -0.000000 -0.000000 -0.000000  0.377700  0.497813
  1N   1s         0.703074  0.702848  0.175812 -0.171067 -0.000000 -0.000000
  1N   2s         0.012841  0.026905 -0.488802  0.742025  0.000000  0.000000
  1N   1pz       -0.002087 -0.009859  0.240161  0.264234  0.000000 -0.000000
  1N   1px        0.000000  0.000000  0.000000 -0.000000 -0.497813  0.377700
  1N   1py        0.000000  0.000000  0.000000 -0.000000  0.377700  0.497813
                      6         7         8         9   
                  -0.53949   0.28131   0.28131   1.12343
                   2.00000   0.00000   0.00000   0.00000
                  --------  --------  --------  --------
  0N   1s         0.069015 -0.000000 -0.000000 -0.126357
  0N   2s        -0.408138  0.000000  0.000000  1.203540
  0N   1pz        0.603797 -0.000000  0.000000  1.212674
  0N   1px       -0.000000  0.057787  0.831612 -0.000000
  0N   1py       -0.000000 -0.831612  0.057787  0.000000
  1N   1s         0.069015 -0.000000  0.000000  0.126357
  1N   2s        -0.408138  0.000000 -0.000000 -1.203540
  1N   1pz       -0.603797  0.000000 -0.000000  1.212674
  1N   1px       -0.000000 -0.057787 -0.831612  0.000000
  1N   1py        0.000000  0.831612 -0.057787  0.000000
--------------
SCF ITERATIONS
--------------
               ***  Starting incremental Fock matrix formation  ***
===> SHARK/Fock/General/Sym: HFTyp=1 DoJ=1 DoX=1 facj= 2.000 facx=-0.500 NFock=1 NumOp=1 NMat=1 RangeSep=0 GeneralContraction=0 PGCOpt=-1
    -> L=0 0 0 0:     0.000 sec done=        54 (= 98.2%) skipped=         1 
    -> L=1 0 0 0:     0.000 sec done=        80 (=100.0%) skipped=         0 
    -> L=1 0 1 0:     0.000 sec done=        36 (=100.0%) skipped=         0 
    -> L=1 1 0 0:     0.000 sec done=        30 (=100.0%) skipped=         0 
    -> L=1 1 1 0:     0.000 sec done=        24 (=100.0%) skipped=         0 
    -> L=1 1 1 1:     0.000 sec done=         6 (=100.0%) skipped=         0 
    -> RHF LowL loop time =     0.001 sec
    ->Total SHARK integral loop time =    0.000 sec
    ->Total LIBINT loop time =    0.003 sec
                      *** Initiating the SOSCF procedure ***
                      *** Re-Reading the Fockian *** 
                      *** Removing any level shift *** 

                         ----------------------------
                         !        ITERATION     0   !
                         ----------------------------
   Total Energy        :    -107.495843723104 Eh
   Energy Change       :    -107.495843723104 Eh
   MAX-DP              :       0.000000433672
   RMS-DP              :       0.000000115445
   Orbital gradient    :       0.000003571059
   Orbital Rotation    :       0.000003571059
   Actual Damping      :       0.0000

               *** Restarting incremental Fock matrix formation ***
===> SHARK/Fock/General/Sym: HFTyp=1 DoJ=1 DoX=1 facj= 2.000 facx=-0.500 NFock=1 NumOp=1 NMat=1 RangeSep=0 GeneralContraction=0 PGCOpt=-1
    -> L=0 0 0 0:     0.000 sec done=        54 (= 98.2%) skipped=         1 
    -> L=1 0 0 0:     0.000 sec done=        80 (=100.0%) skipped=         0 
    -> L=1 0 1 0:     0.000 sec done=        36 (=100.0%) skipped=         0 
    -> L=1 1 0 0:     0.000 sec done=        30 (=100.0%) skipped=         0 
    -> L=1 1 1 0:     0.000 sec done=        24 (=100.0%) skipped=         0 
    -> L=1 1 1 1:     0.000 sec done=         6 (=100.0%) skipped=         0 
    -> RHF LowL loop time =     0.001 sec
    ->Total SHARK integral loop time =    0.000 sec
    ->Total LIBINT loop time =    0.000 sec
                 **** Energy Check signals convergence ****
              ***Rediagonalizing the Fockian in SOSCF/NRSCF***

               *****************************************************
               *                     SUCCESS                       *
               *           SCF CONVERGED AFTER   1 CYCLES          *
               *****************************************************


----------------
TOTAL SCF ENERGY
----------------

Total Energy       :         -107.49584372 Eh           -2925.11062 eV

Components:
Nuclear Repulsion  :           23.62571914 Eh             642.88850 eV
Electronic Energy  :         -131.12156286 Eh           -3567.99912 eV
One Electron Energy:         -192.47272131 Eh           -5237.44901 eV
Two Electron Energy:           61.35115844 Eh            1669.44989 eV

Virial components:
Potential Energy   :         -213.68991839 Eh           -5814.79830 eV
Kinetic Energy     :          106.19407467 Eh            2889.68768 eV
Virial Ratio       :            2.01225840


---------------
SCF CONVERGENCE
---------------

  Last Energy change         ...   -1.6485e-12  Tolerance :   1.0000e-06
  Last MAX-Density change    ...    1.2285e-07  Tolerance :   1.0000e-05
  Last RMS-Density change    ...    2.2922e-08  Tolerance :   1.0000e-06
  Last Orbital Gradient      ...    2.1183e-07  Tolerance :   5.0000e-05
  Last Orbital Rotation      ...    3.3930e-08  Tolerance :   5.0000e-05

             **** THE GBW FILE WAS UPDATED (n2-b.gbw) ****
             **** DENSITY n2-b.scfp WAS UPDATED ****
             **** ENERGY FILE WAS UPDATED (n2-b.en.tmp) ****
             **** THE GBW FILE WAS UPDATED (n2-b.gbw) ****
             **** DENSITY n2-b.scfp WAS UPDATED ****
----------------
ORBITAL ENERGIES
----------------

  NO   OCC          E(Eh)            E(eV) 
   0   2.0000     -15.518060      -422.2679 
   1   2.0000     -15.516117      -422.2150 
   2   2.0000      -1.442821       -39.2612 
   3   2.0000      -0.722494       -19.6600 
   4   2.0000      -0.573110       -15.5951 
   5   2.0000      -0.573110       -15.5951 
   6   2.0000      -0.539490       -14.6803 
   7   0.0000       0.281310         7.6548 
   8   0.0000       0.281310         7.6548 
   9   0.0000       1.123430        30.5701 
------------------
MOLECULAR ORBITALS
------------------
                      0         1         2         3         4         5   
                 -15.51806 -15.51612  -1.44282  -0.72249  -0.57311  -0.57311
                   2.00000   2.00000   2.00000   2.00000   2.00000   2.00000
                  --------  --------  --------  --------  --------  --------
  0N   1s        -0.703074  0.702848  0.175813 -0.171067  0.000000 -0.000000
  0N   2s        -0.012841  0.026905 -0.488803  0.742025 -0.000000  0.000000
  0N   1pz       -0.002087  0.009859 -0.240160 -0.264234 -0.000000 -0.000000
  0N   1px       -0.000000 -0.000000 -0.000000 -0.000000  0.336445 -0.526574
  0N   1py        0.000000  0.000000 -0.000000  0.000000  0.526574  0.336445
  1N   1s        -0.703074 -0.702848  0.175813  0.171067 -0.000000 -0.000000
  1N   2s        -0.012841 -0.026905 -0.488803 -0.742025  0.000000  0.000000
  1N   1pz        0.002087  0.009859  0.240160 -0.264234 -0.000000  0.000000
  1N   1px       -0.000000  0.000000  0.000000  0.000000  0.336445 -0.526574
  1N   1py       -0.000000 -0.000000  0.000000  0.000000  0.526574  0.336445
                      6         7         8         9   
                  -0.53949   0.28131   0.28131   1.12343
                   2.00000   0.00000   0.00000   0.00000
                  --------  --------  --------  --------
  0N   1s        -0.069015  0.000000 -0.000000  0.126357
  0N   2s         0.408137 -0.000000  0.000000 -1.203540
  0N   1pz       -0.603797  0.000000  0.000000 -1.212674
  0N   1px        0.000000  0.024516  0.833257 -0.000000
  0N   1py        0.000000  0.833257 -0.024516 -0.000000
  1N   1s        -0.069015  0.000000  0.000000 -0.126357
  1N   2s         0.408137 -0.000000 -0.000000  1.203540
  1N   1pz        0.603797 -0.000000 -0.000000 -1.212674
  1N   1px        0.000000 -0.024516 -0.833257 -0.000000
  1N   1py       -0.000000 -0.833257  0.024516 -0.000000


-------
DENSITY
-------
                  0          1          2          3          4          5    
      0       2.106490  -0.426207   0.106092   0.000000  -0.000000   0.013453
      1      -0.426207   1.913989  -0.649635  -0.000000   0.000000   0.005897
      2       0.106092  -0.649635   0.984338  -0.000000  -0.000000  -0.102432
      3       0.000000  -0.000000  -0.000000   0.780951  -0.000000  -0.000000
      4      -0.000000   0.000000  -0.000000  -0.000000   0.780951  -0.000000
      5       0.013453   0.005897  -0.102432  -0.000000  -0.000000   2.106490
      6       0.005897  -0.291313   0.133577   0.000000   0.000000  -0.426207
      7       0.102432  -0.133577  -0.704671   0.000000   0.000000  -0.106092
      8      -0.000000   0.000000   0.000000   0.780951   0.000000   0.000000
      9       0.000000  -0.000000   0.000000  -0.000000   0.780951   0.000000
                  6          7          8          9    
      0       0.005897   0.102432  -0.000000   0.000000
      1      -0.291313  -0.133577   0.000000  -0.000000
      2       0.133577  -0.704671   0.000000   0.000000
      3       0.000000   0.000000   0.780951  -0.000000
      4       0.000000   0.000000   0.000000   0.780951
      5      -0.426207  -0.106092   0.000000   0.000000
      6       1.913989   0.649635  -0.000000  -0.000000
      7       0.649635   0.984338  -0.000000  -0.000000
      8      -0.000000  -0.000000   0.780951   0.000000
      9      -0.000000  -0.000000   0.000000   0.780951



                    ********************************
                    * MULLIKEN POPULATION ANALYSIS *
                    ********************************

-----------------------
MULLIKEN ATOMIC CHARGES
-----------------------
   0 N :    0.000000
   1 N :   -0.000000
Sum of atomic charges:    0.0000000

------------------------
MULLIKEN ORBITAL CHARGES
------------------------
The uncorrected charge=density diagonal is given in parenthesis)
   0:   0N   1s           1.997884 (  2.106490)
   1:   0N   2s           1.742857 (  1.913989)
   2:   0N   1pz          1.259259 (  0.984338)
   3:   0N   1px          1.000000 (  0.780951)
   4:   0N   1py          1.000000 (  0.780951)
   5:   1N   1s           1.997884 (  2.106490)
   6:   1N   2s           1.742857 (  1.913989)
   7:   1N   1pz          1.259259 (  0.984338)
   8:   1N   1px          1.000000 (  0.780951)
   9:   1N   1py          1.000000 (  0.780951)
Sum of orbital charges :   14.0000000

--------------------------------
MULLIKEN REDUCED ORBITAL CHARGES
--------------------------------
  0 N s       :     3.740741  s :     3.740741
      pz      :     1.259259  p :     3.259259
      px      :     1.000000
      py      :     1.000000
  1 N s       :     3.740741  s :     3.740741
      pz      :     1.259259  p :     3.259259
      px      :     1.000000
      py      :     1.000000

------------------------
MULLIKEN OVERLAP CHARGES
------------------------
B(  0-N ,  1-N ) :   1.2673 

-----------------------------------
MULLIKEN ORBITAL POPULATIONS PER MO
-----------------------------------
THRESHOLD FOR PRINTING IS 0.1%
                      0         1         2         3         4         5   
                 -15.51806 -15.51612  -1.44282  -0.72249  -0.57311  -0.57311
                   2.00000   2.00000   2.00000   2.00000   2.00000   2.00000
                  --------  --------  --------  --------  --------  --------
  0N   1s             49.7      49.7       0.3       0.2       0.0       0.0
  0N   2s              0.3       0.4      37.3      36.8       0.0       0.0
  0N   1pz             0.0      -0.1      12.4      13.0      -0.0       0.0
  0N   1px             0.0       0.0       0.0      -0.0      14.5      35.5
  0N   1py             0.0       0.0       0.0       0.0      35.5      14.5
  1N   1s             49.7      49.7       0.3       0.2       0.0      -0.0
  1N   2s              0.3       0.4      37.3      36.8       0.0       0.0
  1N   1pz             0.0      -0.1      12.4      13.0       0.0       0.0
  1N   1px             0.0      -0.0      -0.0       0.0      14.5      35.5
  1N   1py             0.0       0.0       0.0       0.0      35.5      14.5

                      6         7         8         9   
                  -0.53949   0.28131   0.28131   1.12343
                   2.00000   0.00000   0.00000   0.00000
                  --------  --------  --------  --------
  0N   1s              0.0       0.0       0.0       0.1
  0N   2s             12.4       0.0       0.0      12.9
  0N   1pz            37.6       0.0       0.0      37.0
  0N   1px             0.0       0.0      50.0       0.0
  0N   1py             0.0      50.0       0.0       0.0
  1N   1s              0.0       0.0       0.0       0.1
  1N   2s             12.4       0.0       0.0      12.9
  1N   1pz            37.6       0.0       0.0      37.0
  1N   1px             0.0       0.0      50.0       0.0
  1N   1py             0.0      50.0       0.0       0.0


                     *******************************
                     * LOEWDIN POPULATION ANALYSIS *
                     *******************************

----------------------
LOEWDIN ATOMIC CHARGES
----------------------
   0 N :    0.000000
   1 N :   -0.000000

-----------------------
LOEWDIN ORBITAL CHARGES
-----------------------
   0:   0N   1s           1.997424
   1:   0N   2s           1.642444
   2:   0N   1pz          1.360132
   3:   0N   1px          1.000000
   4:   0N   1py          1.000000
   5:   1N   1s           1.997424
   6:   1N   2s           1.642444
   7:   1N   1pz          1.360132
   8:   1N   1px          1.000000
   9:   1N   1py          1.000000

-------------------------------
LOEWDIN REDUCED ORBITAL CHARGES
-------------------------------
  0 N s       :     3.639868  s :     3.639868
      pz      :     1.360132  p :     3.360132
      px      :     1.000000
      py      :     1.000000
  1 N s       :     3.639868  s :     3.639868
      pz      :     1.360132  p :     3.360132
      px      :     1.000000
      py      :     1.000000

---------------------------------
LOEWDIN BOND ORDERS (THRESH 0.050000)
---------------------------------
B(  0-N ,  1-N ) :   3.0000 

----------------------------------
LOEWDIN ORBITAL POPULATIONS PER MO
----------------------------------
THRESHOLD FOR PRINTING IS 0.1%
                      0         1         2         3         4         5   
                 -15.51806 -15.51612  -1.44282  -0.72249  -0.57311  -0.57311
                   2.00000   2.00000   2.00000   2.00000   2.00000   2.00000
                  --------  --------  --------  --------  --------  --------
  0N   1s             48.8      49.2       1.1       0.7       0.0       0.0
  0N   2s              1.1       0.8      36.0      31.3       0.0       0.0
  0N   1pz             0.1       0.0      12.9      18.0       0.0       0.0
  0N   1px             0.0       0.0       0.0       0.0      14.5      35.5
  0N   1py             0.0       0.0       0.0       0.0      35.5      14.5
  1N   1s             48.8      49.2       1.1       0.7       0.0       0.0
  1N   2s              1.1       0.8      36.0      31.3       0.0       0.0
  1N   1pz             0.1       0.0      12.9      18.0       0.0       0.0
  1N   1px             0.0       0.0       0.0       0.0      14.5      35.5
  1N   1py             0.0       0.0       0.0       0.0      35.5      14.5

                      6         7         8         9   
                  -0.53949   0.28131   0.28131   1.12343
                   2.00000   0.00000   0.00000   0.00000
                  --------  --------  --------  --------
  0N   1s              0.1       0.0       0.0       0.1
  0N   2s             12.9       0.0       0.0      17.9
  0N   1pz            37.0       0.0       0.0      32.0
  0N   1px             0.0       0.0      50.0       0.0
  0N   1py             0.0      50.0       0.0       0.0
  1N   1s              0.1       0.0       0.0       0.1
  1N   2s             12.9       0.0       0.0      17.9
  1N   1pz            37.0       0.0       0.0      32.0
  1N   1px             0.0       0.0      50.0       0.0
  1N   1py             0.0      50.0       0.0       0.0

------------------------------------------
LOEWDIN REDUCED ORBITAL POPULATIONS PER MO
-------------------------------------------
THRESHOLD FOR PRINTING IS 0.1%
                      0         1         2         3         4         5   
                 -15.51806 -15.51612  -1.44282  -0.72249  -0.57311  -0.57311
                   2.00000   2.00000   2.00000   2.00000   2.00000   2.00000
                  --------  --------  --------  --------  --------  --------
 0 N  s              49.9      50.0      37.1      32.0       0.0       0.0
 0 N  pz              0.1       0.0      12.9      18.0       0.0       0.0
 0 N  px              0.0       0.0       0.0       0.0      14.5      35.5
 0 N  py              0.0       0.0       0.0       0.0      35.5      14.5
 1 N  s              49.9      50.0      37.1      32.0       0.0       0.0
 1 N  pz              0.1       0.0      12.9      18.0       0.0       0.0
 1 N  px              0.0       0.0       0.0       0.0      14.5      35.5
 1 N  py              0.0       0.0       0.0       0.0      35.5      14.5

                      6         7         8         9   
                  -0.53949   0.28131   0.28131   1.12343
                   2.00000   0.00000   0.00000   0.00000
                  --------  --------  --------  --------
 0 N  s              13.0       0.0       0.0      18.0
 0 N  pz             37.0       0.0       0.0      32.0
 0 N  px              0.0       0.0      50.0       0.0
 0 N  py              0.0      50.0       0.0       0.0
 1 N  s              13.0       0.0       0.0      18.0
 1 N  pz             37.0       0.0       0.0      32.0
 1 N  px              0.0       0.0      50.0       0.0
 1 N  py              0.0      50.0       0.0       0.0


                      *****************************
                      * MAYER POPULATION ANALYSIS *
                      *****************************

  NA   - Mulliken gross atomic population
  ZA   - Total nuclear charge
  QA   - Mulliken gross atomic charge
  VA   - Mayer's total valence
  BVA  - Mayer's bonded valence
  FA   - Mayer's free valence

  ATOM       NA         ZA         QA         VA         BVA        FA
  0 N      7.0000     7.0000     0.0000     3.0000     3.0000    -0.0000
  1 N      7.0000     7.0000    -0.0000     3.0000     3.0000     0.0000

  Mayer bond orders larger than 0.100000
B(  0-N ,  1-N ) :   3.0000 

-------
TIMINGS
-------

Total SCF time: 0 days 0 hours 0 min 0 sec 

Total time                  ....       0.058 sec
Sum of individual times     ....       0.007 sec  ( 12.1%)

Fock matrix formation       ....       0.005 sec  (  8.7%)
Diagonalization             ....       0.000 sec  (  0.1%)
Density matrix formation    ....       0.000 sec  (  0.0%)
Population analysis         ....       0.001 sec  (  2.3%)
Initial guess               ....       0.001 sec  (  0.9%)
Orbital Transformation      ....       0.000 sec  (  0.0%)
Orbital Orthonormalization  ....       0.000 sec  (  0.1%)
DIIS solution               ....       0.000 sec  (  0.0%)
SOSCF solution              ....       0.000 sec  (  0.1%)

Maximum memory used throughout the entire SCF-calculation: 223.7 MB

-------------------------   --------------------
FINAL SINGLE POINT ENERGY      -107.495843723106
-------------------------   --------------------


                            ***************************************
                            *     ORCA property calculations      *
                            ***************************************

                                    ---------------------
                                    Active property flags
                                    ---------------------
   (+) Dipole Moment


------------------------------------------------------------------------------
                       ORCA ELECTRIC PROPERTIES CALCULATION
------------------------------------------------------------------------------

Dipole Moment Calculation                       ... on
Quadrupole Moment Calculation                   ... off
Polarizability Calculation                      ... off
GBWName                                         ... n2-b.gbw
Electron density                                ... n2-b.scfp
SHARK General Contraction Test:  Segmented basis detected
   -> Pre-screening matrix found on disk - Trying to read with NShells=6
   -> Passing Pre-screening matrix on to SHARK ...ok
   -> Leaving CheckPreScreeningMatrix
----------------------
SHARK INTEGRAL PACKAGE
----------------------

Number of atoms                             ...      2
Number of basis functions                   ...     10
Number of shells                            ...      6
Maximum angular momentum                    ...      1
Integral batch strategy                     ... SHARK/LIBINT Hybrid
RI-J (if used) integral strategy            ... SPLIT-RIJ (Revised 2003 algorithm where possible)
Printlevel                                  ...      2
Contraction scheme used                     ... SEGMENTED contraction
Coulomb Range Separation                    ... NOT USED
Exchange Range Separation                   ... NOT USED
Finite Nucleus Model                        ... NOT USED
Auxiliary Coulomb fitting basis             ... NOT available
Auxiliary J/K fitting basis                 ... NOT available
Auxiliary Correlation fitting basis         ... NOT available
Auxiliary 'external' fitting basis          ... NOT available
Integral threshold                          ...     1.000000e-10
Primitive cut-off                           ...     1.000000e-11
Primitive pair pre-selection threshold      ...     1.000000e-11

The origin for moment calculation is the CENTER OF MASS  = ( 0.000000,  0.000000  1.037005)

-------------
DIPOLE MOMENT
-------------
                                X             Y             Z
Electronic contribution:      0.00000       0.00000      -0.00000
Nuclear contribution   :      0.00000       0.00000       0.00000
                        -----------------------------------------
Total Dipole Moment    :      0.00000       0.00000      -0.00000
                        -----------------------------------------
Magnitude (a.u.)       :      0.00000
Magnitude (Debye)      :      0.00000



--------------------
Rotational spectrum 
--------------------
 
Rotational constants in cm-1:     0.000000     1.998285     1.998285 
Rotational constants in MHz :     0.000000 59907.076038 59907.076038 

 Dipole components along the rotational axes: 
x,y,z [a.u.] :    -0.000000     0.000000     0.000000 
x,y,z [Debye]:    -0.000000     0.000000     0.000000 

 

Timings for individual modules:

Sum of individual times         ...        0.103 sec (=   0.002 min)
GTO integral calculation        ...        0.035 sec (=   0.001 min)  34.2 %
SCF iterations                  ...        0.068 sec (=   0.001 min)  65.8 %
                             ****ORCA TERMINATED NORMALLY****
TOTAL RUN TIME: 0 days 0 hours 0 minutes 0 seconds 133 msec
