
                                 *****************
                                 * O   R   C   A *
                                 *****************

                                            #,                                       
                                            ###                                      
                                            ####                                     
                                            #####                                    
                                            ######                                   
                                           ########,                                 
                                     ,,################,,,,,                         
                               ,,#################################,,                 
                          ,,##########################################,,             
                       ,#########################################, ''#####,          
                    ,#############################################,,   '####,        
                  ,##################################################,,,,####,       
                ,###########''''           ''''###############################       
              ,#####''   ,,,,##########,,,,          '''####'''          '####       
            ,##' ,,,,###########################,,,                        '##       
           ' ,,###''''                  '''############,,,                           
         ,,##''                                '''############,,,,        ,,,,,,###''
      ,#''                                            '''#######################'''  
     '                                                          ''''####''''         
             ,#######,   #######,   ,#######,      ##                                
            ,#'     '#,  ##    ##  ,#'     '#,    #''#        ######   ,####,        
            ##       ##  ##   ,#'  ##            #'  '#       #        #'  '#        
            ##       ##  #######   ##           ,######,      #####,   #    #        
            '#,     ,#'  ##    ##  '#,     ,#' ,#      #,         ##   #,  ,#        
             '#######'   ##     ##  '#######'  #'      '#     #####' # '####'        



                  #######################################################
                  #                        -***-                        #
                  #          Department of theory and spectroscopy      #
                  #    Directorship and core code : Frank Neese         #
                  #        Max Planck Institute fuer Kohlenforschung    #
                  #                Kaiser Wilhelm Platz 1               #
                  #                 D-45470 Muelheim/Ruhr               #
                  #                      Germany                        #
                  #                                                     #
                  #                  All rights reserved                #
                  #                        -***-                        #
                  #######################################################


                         Program Version 5.0.4 -  RELEASE  -


 With contributions from (in alphabetic order):
   Daniel Aravena         : Magnetic Suceptibility
   Michael Atanasov       : Ab Initio Ligand Field Theory (pilot matlab implementation)
   Alexander A. Auer      : GIAO ZORA, VPT2 properties, NMR spectrum
   Ute Becker             : Parallelization
   Giovanni Bistoni       : ED, misc. LED, open-shell LED, HFLD
   Martin Brehm           : Molecular dynamics
   Dmytro Bykov           : SCF Hessian
   Vijay G. Chilkuri      : MRCI spin determinant printing, contributions to CSF-ICE
   Dipayan Datta          : RHF DLPNO-CCSD density
   Achintya Kumar Dutta   : EOM-CC, STEOM-CC
   Dmitry Ganyushin       : Spin-Orbit,Spin-Spin,Magnetic field MRCI
   Miquel Garcia          : C-PCM and meta-GGA Hessian, CC/C-PCM, Gaussian charge scheme
   Yang Guo               : DLPNO-NEVPT2, F12-NEVPT2, CIM, IAO-localization
   Andreas Hansen         : Spin unrestricted coupled pair/coupled cluster methods
   Benjamin Helmich-Paris : MC-RPA, TRAH-SCF, COSX integrals
   Lee Huntington         : MR-EOM, pCC
   Robert Izsak           : Overlap fitted RIJCOSX, COSX-SCS-MP3, EOM
   Marcus Kettner         : VPT2
   Christian Kollmar      : KDIIS, OOCD, Brueckner-CCSD(T), CCSD density, CASPT2, CASPT2-K
   Simone Kossmann        : Meta GGA functionals, TD-DFT gradient, OOMP2, MP2 Hessian
   Martin Krupicka        : Initial AUTO-CI
   Lucas Lang             : DCDCAS
   Marvin Lechner         : AUTO-CI (C++ implementation), FIC-MRCC
   Dagmar Lenk            : GEPOL surface, SMD
   Dimitrios Liakos       : Extrapolation schemes; Compound Job, initial MDCI parallelization
   Dimitrios Manganas     : Further ROCIS development; embedding schemes
   Dimitrios Pantazis     : SARC Basis sets
   Anastasios Papadopoulos: AUTO-CI, single reference methods and gradients
   Taras Petrenko         : DFT Hessian,TD-DFT gradient, ASA, ECA, R-Raman, ABS, FL, XAS/XES, NRVS
   Peter Pinski           : DLPNO-MP2, DLPNO-MP2 Gradient
   Christoph Reimann      : Effective Core Potentials
   Marius Retegan         : Local ZFS, SOC
   Christoph Riplinger    : Optimizer, TS searches, QM/MM, DLPNO-CCSD(T), (RO)-DLPNO pert. Triples
   Tobias Risthaus        : Range-separated hybrids, TD-DFT gradient, RPA, STAB
   Michael Roemelt        : Original ROCIS implementation
   Masaaki Saitow         : Open-shell DLPNO-CCSD energy and density
   Barbara Sandhoefer     : DKH picture change effects
   Avijit Sen             : IP-ROCIS
   Kantharuban Sivalingam : CASSCF convergence, NEVPT2, FIC-MRCI
   Bernardo de Souza      : ESD, SOC TD-DFT
   Georgi Stoychev        : AutoAux, RI-MP2 NMR, DLPNO-MP2 response
   Willem Van den Heuvel  : Paramagnetic NMR
   Boris Wezisla          : Elementary symmetry handling
   Frank Wennmohs         : Technical directorship


 We gratefully acknowledge several colleagues who have allowed us to
 interface, adapt or use parts of their codes:
   Stefan Grimme, W. Hujo, H. Kruse, P. Pracht,  : VdW corrections, initial TS optimization,
                  C. Bannwarth, S. Ehlert          DFT functionals, gCP, sTDA/sTD-DF
   Ed Valeev, F. Pavosevic, A. Kumar             : LibInt (2-el integral package), F12 methods
   Garnet Chan, S. Sharma, J. Yang, R. Olivares  : DMRG
   Ulf Ekstrom                                   : XCFun DFT Library
   Mihaly Kallay                                 : mrcc  (arbitrary order and MRCC methods)
   Jiri Pittner, Ondrej Demel                    : Mk-CCSD
   Frank Weinhold                                : gennbo (NPA and NBO analysis)
   Christopher J. Cramer and Donald G. Truhlar   : smd solvation model
   Lars Goerigk                                  : TD-DFT with DH, B97 family of functionals
   V. Asgeirsson, H. Jonsson                     : NEB implementation
   FAccTs GmbH                                   : IRC, NEB, NEB-TS, DLPNO-Multilevel, CI-OPT
                                                   MM, QMMM, 2- and 3-layer-ONIOM, Crystal-QMMM,
                                                   LR-CPCM, SF, NACMEs, symmetry and pop. for TD-DFT,
                                                   nearIR, NL-DFT gradient (VV10), updates on ESD,
                                                   ML-optimized integration grids
   S Lehtola, MJT Oliveira, MAL Marques          : LibXC Library
   Liviu Ungur et al                             : ANISO software


 Your calculation uses the libint2 library for the computation of 2-el integrals
 For citations please refer to: http://libint.valeyev.net

 Your ORCA version has been built with support for libXC version: 5.1.0
 For citations please refer to: https://tddft.org/programs/libxc/

 This ORCA versions uses:
   CBLAS   interface :  Fast vector & matrix operations
   LAPACKE interface :  Fast linear algebra routines
   SCALAPACK package :  Parallel linear algebra routines
   Shared memory     :  Shared parallel matrices
   BLAS/LAPACK       :  OpenBLAS 0.3.15  USE64BITINT DYNAMIC_ARCH NO_AFFINITY Zen SINGLE_THREADED
        Core in use  :  Zen
   Copyright (c) 2011-2014, The OpenBLAS Project




***************************************
The coordinates will be read from file: n2.xyz
***************************************


================================================================================

----- Orbital basis set information -----
Your calculation utilizes the basis: STO-3G
   H-Ne       : W. J. Hehre, R. F. Stewart and J. A. Pople, J. Chem. Phys. 2657 (1969).
   Na-Ar      : W. J. Hehre, R. Ditchfield, R. F. Stewart and J. A. Pople, J. Chem. Phys. 2769 (1970).
   K,Ca,Ga-Kr : W. J. Pietro, B. A. Levy, W. J. Hehre and R. F. Stewart, J. Am. Chem. Soc. 19, 2225 (1980).
   Sc-Zn,Y-Cd : W. J. Pietro and W. J. Hehre, J. Comp. Chem. 4, 241 (1983).

================================================================================
                                        WARNINGS
                       Please study these warnings very carefully!
================================================================================


INFO   : the flag for use of the SHARK integral package has been found!

================================================================================
                                       INPUT FILE
================================================================================
NAME = n2.inp
|  1> ! HF STO-3G LARGEPRINT
|  2> 
|  3> %output
|  4> 	Print[ P_Basis ] 2
|  5> 	Print[ P_MOs ] 1
|  6> end
|  7> 
|  8> * xyzfile 0 1 n2.xyz
|  9> 
| 10>                          ****END OF INPUT****
================================================================================

                       ****************************
                       * Single Point Calculation *
                       ****************************

---------------------------------
CARTESIAN COORDINATES (ANGSTROEM)
---------------------------------
  N      0.000000    0.000000    0.000000
  N      0.000000    0.000000    2.074000

----------------------------
CARTESIAN COORDINATES (A.U.)
----------------------------
  NO LB      ZA    FRAG     MASS         X           Y           Z
   0 N     7.0000    0    14.007    0.000000    0.000000    0.000000
   1 N     7.0000    0    14.007    0.000000    0.000000    3.919292

--------------------------------
INTERNAL COORDINATES (ANGSTROEM)
--------------------------------
 N      0   0   0     0.000000000000     0.00000000     0.00000000
 N      1   0   0     2.074000000000     0.00000000     0.00000000

---------------------------
INTERNAL COORDINATES (A.U.)
---------------------------
 N      0   0   0     0.000000000000     0.00000000     0.00000000
 N      1   0   0     3.919292001753     0.00000000     0.00000000

---------------------
BASIS SET INFORMATION
---------------------
There are 1 groups of distinct atoms

 Group   1 Type N   : 6s3p contracted to 2s1p pattern {33/3}

Atom   0N    basis set group =>   1
Atom   1N    basis set group =>   1

-------------------------
BASIS SET IN INPUT FORMAT
-------------------------

 # Basis set for element : N 
 NewGTO N 
 S 3 
   1      99.1061690000      0.1543289703
   2      18.0523120000      0.5353281411
   3       4.8856602000      0.4446345409
 S 3 
   1       3.7804559000     -0.0999672284
   2       0.8784966000      0.3995128238
   3       0.2857144000      0.7001154591
 P 3 
   1       3.7804559000      0.1559162685
   2       0.8784966000      0.6076837143
   3       0.2857144000      0.3919573863
  end;

------------------------------------------------------------------------------
                           ORCA GTO INTEGRAL CALCULATION
------------------------------------------------------------------------------
------------------------------------------------------------------------------
                   ___                                                        
                  /   \      - P O W E R E D   B Y -                         
                 /     \                                                     
                 |  |  |   _    _      __       _____    __    __             
                 |  |  |  | |  | |    /  \     |  _  \  |  |  /  |          
                  \  \/   | |  | |   /    \    | | | |  |  | /  /          
                 / \  \   | |__| |  /  /\  \   | |_| |  |  |/  /          
                |  |  |   |  __  | /  /__\  \  |    /   |      \           
                |  |  |   | |  | | |   __   |  |    \   |  |\   \          
                \     /   | |  | | |  |  |  |  | |\  \  |  | \   \       
                 \___/    |_|  |_| |__|  |__|  |_| \__\ |__|  \__/        
                                                                              
                      - O R C A' S   B I G   F R I E N D -                    
                                      &                                       
                       - I N T E G R A L  F E E D E R -                       
                                                                              
 v1 FN, 2020, v2 2021                                                         
------------------------------------------------------------------------------


Reading SHARK input file n2.SHARKINP.tmp ... SHARK General Contraction Test:  Segmented basis detected
   -> Pre-screening matrix *NOT* found on disk - recalculating with NShells=6
   -> Leaving CheckPreScreeningMatrix
ok
----------------------
SHARK INTEGRAL PACKAGE
----------------------

Number of atoms                             ...      2
Number of basis functions                   ...     10
Number of shells                            ...      6
Maximum angular momentum                    ...      1
Integral batch strategy                     ... SHARK/LIBINT Hybrid
RI-J (if used) integral strategy            ... SPLIT-RIJ (Revised 2003 algorithm where possible)
Printlevel                                  ...      2
Contraction scheme used                     ... SEGMENTED contraction
Coulomb Range Separation                    ... NOT USED
Exchange Range Separation                   ... NOT USED
Finite Nucleus Model                        ... NOT USED
Auxiliary Coulomb fitting basis             ... NOT available
Auxiliary J/K fitting basis                 ... NOT available
Auxiliary Correlation fitting basis         ... NOT available
Auxiliary 'external' fitting basis          ... NOT available
Integral threshold                          ...     1.000000e-10
Primitive cut-off                           ...     1.000000e-11
Primitive pair pre-selection threshold      ...     1.000000e-11

Calculating pre-screening integrals         ... done (  0.0 sec) Dimension = 6
Organizing shell pair data                  ... done (  0.0 sec)
Shell pair information
Total number of shell pairs                 ...        21
Shell pairs after pre-screening             ...        20
Total number of primitive shell pairs       ...       189
Primitive shell pairs kept                  ...       164
          la=0 lb=0:      9 shell pairs
          la=1 lb=0:      8 shell pairs
          la=1 lb=1:      3 shell pairs

Calculating one electron integrals          ... done (  0.0 sec)
Calculating Nuclear repulsion               ... done (  0.0 sec) ENN=     12.502258055304 Eh

SHARK setup successfully completed in   0.0 seconds

Maximum memory used throughout the entire GTOINT-calculation: 3.9 MB
-------------------------------------------------------------------------------
                                 ORCA SCF
-------------------------------------------------------------------------------

------------
SCF SETTINGS
------------
Hamiltonian:
 Ab initio Hamiltonian  Method          .... Hartree-Fock(GTOs)


General Settings:
 Integral files         IntName         .... n2
 Hartree-Fock type      HFTyp           .... RHF
 Total Charge           Charge          ....    0
 Multiplicity           Mult            ....    1
 Number of Electrons    NEL             ....   14
 Basis Dimension        Dim             ....   10
 Nuclear Repulsion      ENuc            ....     12.5022580553 Eh

Convergence Acceleration:
 DIIS                   CNVDIIS         .... on
   Start iteration      DIISMaxIt       ....    12
   Startup error        DIISStart       ....  0.200000
   # of expansion vecs  DIISMaxEq       ....     5
   Bias factor          DIISBfac        ....   1.050
   Max. coefficient     DIISMaxC        ....  10.000
 Trust-Rad. Augm. Hess. CNVTRAH         .... auto
   Auto Start mean grad. ratio tolernc. ....  1.125000
   Auto Start start iteration           ....    20
   Auto Start num. interpolation iter.  ....    10
   Max. Number of Micro iterations      ....    16
   Max. Number of Macro iterations      .... Maxiter - #DIIS iter
   Number of Davidson start vectors     ....     2
   Converg. threshold I  (grad. norm)   ....   5.000e-05
   Converg. threshold II (energy diff.) ....   1.000e-06
   Grad. Scal. Fac. for Micro threshold ....   0.100
   Minimum threshold for Micro iter.    ....   0.010
   NR start threshold (gradient norm)   ....   0.001
   Initial trust radius                 ....   0.400
   Minimum AH scaling param. (alpha)    ....   1.000
   Maximum AH scaling param. (alpha)    .... 1000.000
   Orbital update algorithm             .... Taylor
   White noise on init. David. guess    .... on
   Maximum white noise                  ....   0.010
   Quad. conv. algorithm                .... NR
 SOSCF                  CNVSOSCF        .... on
   Start iteration      SOSCFMaxIt      ....   150
   Startup grad/error   SOSCFStart      ....  0.003300
 Level Shifting         CNVShift        .... on
   Level shift para.    LevelShift      ....    0.2500
   Turn off err/grad.   ShiftErr        ....    0.0010
 Zerner damping         CNVZerner       .... off
 Static damping         CNVDamp         .... on
   Fraction old density DampFac         ....    0.7000
   Max. Damping (<1)    DampMax         ....    0.9800
   Min. Damping (>=0)   DampMin         ....    0.0000
   Turn off err/grad.   DampErr         ....    0.1000
 Fernandez-Rico         CNVRico         .... off

SCF Procedure:
 Maximum # iterations   MaxIter         ....   125
 SCF integral mode      SCFMode         .... Direct
   Integral package                     .... SHARK and LIBINT hybrid scheme
 Reset frequency        DirectResetFreq ....    20
 Integral Threshold     Thresh          ....  1.000e-10 Eh
 Primitive CutOff       TCut            ....  1.000e-11 Eh

Convergence Tolerance:
 Convergence Check Mode ConvCheckMode   .... Total+1el-Energy
 Convergence forced     ConvForced      .... 0
 Energy Change          TolE            ....  1.000e-06 Eh
 1-El. energy change                    ....  1.000e-03 Eh
 Orbital Gradient       TolG            ....  5.000e-05
 Orbital Rotation angle TolX            ....  5.000e-05
 DIIS Error             TolErr          ....  1.000e-06


Diagonalization of the overlap matrix:
Smallest eigenvalue                        ... 6.956e-01
Time for diagonalization                   ...    0.000 sec
Threshold for overlap eigenvalues          ... 1.000e-08
Number of eigenvalues below threshold      ... 0
Time for construction of square roots      ...    0.000 sec
Total time needed                          ...    0.000 sec

SHARK General Contraction Test:  Segmented basis detected
   -> Pre-screening matrix found on disk - Trying to read with NShells=6
   -> Passing Pre-screening matrix on to SHARK ...ok
   -> Leaving CheckPreScreeningMatrix
----------------------
SHARK INTEGRAL PACKAGE
----------------------

Number of atoms                             ...      2
Number of basis functions                   ...     10
Number of shells                            ...      6
Maximum angular momentum                    ...      1
Integral batch strategy                     ... SHARK/LIBINT Hybrid
RI-J (if used) integral strategy            ... SPLIT-RIJ (Revised 2003 algorithm where possible)
Printlevel                                  ...      2
Contraction scheme used                     ... SEGMENTED contraction
Coulomb Range Separation                    ... NOT USED
Exchange Range Separation                   ... NOT USED
Finite Nucleus Model                        ... NOT USED
Auxiliary Coulomb fitting basis             ... NOT available
Auxiliary J/K fitting basis                 ... NOT available
Auxiliary Correlation fitting basis         ... NOT available
Auxiliary 'external' fitting basis          ... NOT available
Integral threshold                          ...     1.000000e-10
Primitive cut-off                           ...     1.000000e-11
Primitive pair pre-selection threshold      ...     1.000000e-11

Time for model grid setup =    0.008 sec

------------------------------
INITIAL GUESS: MODEL POTENTIAL
------------------------------
Loading Hartree-Fock densities                     ... done
Calculating cut-offs                               ... done
Initializing the effective Hamiltonian             ... done
Setting up the integral package (SHARK)            ... done
Starting the Coulomb interaction                   ...     -> Generating integrals - 
    -> L=0 0 :     0.000 sec done=       198 skipped=         0 prim-skipped=         0
    -> L=1 0 :     0.000 sec done=       176 skipped=         0 prim-skipped=         0
    -> L=1 1 :     0.000 sec done=        66 skipped=         0 prim-skipped=         0
done (   0.0 sec)
Reading the grid                                   ... done
Mapping shells                                     ... done
Starting the XC term evaluation                    ... done (   0.0 sec)
Transforming the Hamiltonian                       ... done (   0.0 sec)
Diagonalizing the Hamiltonian                      ... done (   0.0 sec)
Back transforming the eigenvectors                 ... done (   0.0 sec)
Now organizing SCF variables                       ... done
                      ------------------
                      INITIAL GUESS DONE (   0.0 sec)
                      ------------------
----------------------
INITIAL GUESS ORBITALS
----------------------
                      0         1         2         3         4         5   
                 -13.70773 -13.70679  -0.68312  -0.60593  -0.26086  -0.21129
                   2.00000   2.00000   2.00000   2.00000   2.00000   2.00000
                  --------  --------  --------  --------  --------  --------
  0N   1s        -0.701797  0.702299  0.183642  0.194188 -0.030907 -0.000000
  0N   2s        -0.021616  0.019186 -0.692732 -0.747513  0.131326  0.000000
  0N   1pz       -0.001814 -0.001160 -0.062302  0.052868 -0.664237 -0.000000
  0N   1px        0.000000  0.000000  0.000000 -0.000000  0.000000 -0.002119
  0N   1py       -0.000000  0.000000  0.000000  0.000000 -0.000000  0.696773
  1N   1s         0.701797  0.702299  0.183642 -0.194188 -0.030907 -0.000000
  1N   2s         0.021616  0.019186 -0.692732  0.747513  0.131326  0.000000
  1N   1pz       -0.001814  0.001160  0.062302  0.052868  0.664237  0.000000
  1N   1px        0.000000 -0.000000 -0.000000  0.000000  0.000000 -0.002119
  1N   1py        0.000000 -0.000000  0.000000  0.000000 -0.000000  0.696773
                      6         7         8         9   
                  -0.21129  -0.16967  -0.16967  -0.09056
                   2.00000   0.00000   0.00000   0.00000
                  --------  --------  --------  --------
  0N   1s         0.000000  0.000000 -0.000000  0.031842
  0N   2s        -0.000000 -0.000000  0.000000 -0.139714
  0N   1pz        0.000000  0.000000  0.000000 -0.762838
  0N   1px        0.696773  0.000211 -0.717911 -0.000000
  0N   1py        0.002119 -0.717911 -0.000211 -0.000000
  1N   1s         0.000000  0.000000  0.000000 -0.031842
  1N   2s        -0.000000 -0.000000 -0.000000  0.139714
  1N   1pz       -0.000000  0.000000  0.000000 -0.762838
  1N   1px        0.696773 -0.000211  0.717911  0.000000
  1N   1py        0.002119  0.717911  0.000211  0.000000
--------------
SCF ITERATIONS
--------------
               ***  Starting incremental Fock matrix formation  ***
===> SHARK/Fock/General/Sym: HFTyp=1 DoJ=1 DoX=1 facj= 2.000 facx=-0.500 NFock=1 NumOp=1 NMat=1 RangeSep=0 GeneralContraction=0 PGCOpt=-1
    -> L=0 0 0 0:     0.000 sec done=        45 (=100.0%) skipped=         0 
    -> L=1 0 0 0:     0.000 sec done=        72 (=100.0%) skipped=         0 
    -> L=1 0 1 0:     0.000 sec done=        36 (=100.0%) skipped=         0 
    -> L=1 1 0 0:     0.000 sec done=        27 (=100.0%) skipped=         0 
    -> L=1 1 1 0:     0.000 sec done=        24 (=100.0%) skipped=         0 
    -> L=1 1 1 1:     0.000 sec done=         6 (=100.0%) skipped=         0 
    -> RHF LowL loop time =     0.001 sec
    ->Total SHARK integral loop time =    0.000 sec
    ->Total LIBINT loop time =    0.003 sec

                         ----------------------------
                         !        ITERATION     0   !
                         ----------------------------
   Total Energy        :    -106.823159570690 Eh
   Energy Change       :    -106.823159570690 Eh
   MAX-DP              :       0.005164474077
   RMS-DP              :       0.001066903098
   Actual Damping      :       0.7000
   Actual Level Shift  :       0.2500 Eh

===> SHARK/Fock/General/Sym: HFTyp=1 DoJ=1 DoX=1 facj= 2.000 facx=-0.500 NFock=1 NumOp=1 NMat=1 RangeSep=0 GeneralContraction=0 PGCOpt=-1
    -> L=0 0 0 0:     0.000 sec done=        45 (=100.0%) skipped=         0 
    -> L=1 0 0 0:     0.000 sec done=        72 (=100.0%) skipped=         0 
    -> L=1 0 1 0:     0.000 sec done=        36 (=100.0%) skipped=         0 
    -> L=1 1 0 0:     0.000 sec done=        27 (=100.0%) skipped=         0 
    -> L=1 1 1 0:     0.000 sec done=        24 (=100.0%) skipped=         0 
    -> L=1 1 1 1:     0.000 sec done=         6 (=100.0%) skipped=         0 
    -> RHF LowL loop time =     0.001 sec
    ->Total SHARK integral loop time =    0.000 sec
    ->Total LIBINT loop time =    0.000 sec

                         ----------------------------
                         !        ITERATION     1   !
                         ----------------------------
   Total Energy        :    -106.823395963115 Eh
   Energy Change       :      -0.000236392425 Eh
   MAX-DP              :       0.004914571078
   RMS-DP              :       0.001020340737
   Actual Damping      :       0.7000
   Actual Level Shift  :       0.2500 Eh

===> SHARK/Fock/General/Sym: HFTyp=1 DoJ=1 DoX=1 facj= 2.000 facx=-0.500 NFock=1 NumOp=1 NMat=1 RangeSep=0 GeneralContraction=0 PGCOpt=-1
    -> L=0 0 0 0:     0.000 sec done=        45 (=100.0%) skipped=         0 
    -> L=1 0 0 0:     0.000 sec done=        72 (=100.0%) skipped=         0 
    -> L=1 0 1 0:     0.000 sec done=        36 (=100.0%) skipped=         0 
    -> L=1 1 0 0:     0.000 sec done=        27 (=100.0%) skipped=         0 
    -> L=1 1 1 0:     0.000 sec done=        24 (=100.0%) skipped=         0 
    -> L=1 1 1 1:     0.000 sec done=         6 (=100.0%) skipped=         0 
    -> RHF LowL loop time =     0.001 sec
    ->Total SHARK integral loop time =    0.000 sec
    ->Total LIBINT loop time =    0.000 sec
                               ***Turning on DIIS***

                         ----------------------------
                         !        ITERATION     2   !
                         ----------------------------
   Total Energy        :    -106.823592089950 Eh
   Energy Change       :      -0.000196126835 Eh
   MAX-DP              :       0.013262558766
   RMS-DP              :       0.002760205387
   Actual Damping      :       0.0000
   Actual Level Shift  :       0.2500 Eh
   DIIS-Error          :       0.012651500480

===> SHARK/Fock/General/Sym: HFTyp=1 DoJ=1 DoX=1 facj= 2.000 facx=-0.500 NFock=1 NumOp=1 NMat=1 RangeSep=0 GeneralContraction=0 PGCOpt=-1
    -> L=0 0 0 0:     0.000 sec done=        45 (=100.0%) skipped=         0 
    -> L=1 0 0 0:     0.000 sec done=        72 (=100.0%) skipped=         0 
    -> L=1 0 1 0:     0.000 sec done=        36 (=100.0%) skipped=         0 
    -> L=1 1 0 0:     0.000 sec done=        27 (=100.0%) skipped=         0 
    -> L=1 1 1 0:     0.000 sec done=        24 (=100.0%) skipped=         0 
    -> L=1 1 1 1:     0.000 sec done=         6 (=100.0%) skipped=         0 
    -> RHF LowL loop time =     0.001 sec
    ->Total SHARK integral loop time =    0.000 sec
    ->Total LIBINT loop time =    0.000 sec

                         ----------------------------
                         !        ITERATION     3   !
                         ----------------------------
   Total Energy        :    -106.825563717774 Eh
   Energy Change       :      -0.001971627824 Eh
   MAX-DP              :       0.003312383471
   RMS-DP              :       0.000702991588
   Actual Damping      :       0.0000
   Actual Level Shift  :       0.2500 Eh
   DIIS-Error          :       0.002804667029
   DIIS coefficients:
     -0.15150   1.15150

===> SHARK/Fock/General/Sym: HFTyp=1 DoJ=1 DoX=1 facj= 2.000 facx=-0.500 NFock=1 NumOp=1 NMat=1 RangeSep=0 GeneralContraction=0 PGCOpt=-1
    -> L=0 0 0 0:     0.000 sec done=        45 (=100.0%) skipped=         0 
    -> L=1 0 0 0:     0.000 sec done=        72 (=100.0%) skipped=         0 
    -> L=1 0 1 0:     0.000 sec done=        36 (=100.0%) skipped=         0 
    -> L=1 1 0 0:     0.000 sec done=        27 (=100.0%) skipped=         0 
    -> L=1 1 1 0:     0.000 sec done=        24 (=100.0%) skipped=         0 
    -> L=1 1 1 1:     0.000 sec done=         6 (=100.0%) skipped=         0 
    -> RHF LowL loop time =     0.001 sec
    ->Total SHARK integral loop time =    0.000 sec
    ->Total LIBINT loop time =    0.000 sec
                      *** Initiating the SOSCF procedure ***
                           *** Shutting down DIIS ***
                      *** Re-Reading the Fockian *** 
                      *** Removing any level shift *** 

                         ----------------------------
                         !        ITERATION     4   !
                         ----------------------------
   Total Energy        :    -106.825127588865 Eh
   Energy Change       :       0.000436128909 Eh
   MAX-DP              :       0.001471782099
   RMS-DP              :       0.000312999542
   Orbital gradient    :       0.001364405963
   Orbital Rotation    :       0.001364405963
   Actual Damping      :       0.0000

               *** Restarting incremental Fock matrix formation ***
===> SHARK/Fock/General/Sym: HFTyp=1 DoJ=1 DoX=1 facj= 2.000 facx=-0.500 NFock=1 NumOp=1 NMat=1 RangeSep=0 GeneralContraction=0 PGCOpt=-1
    -> L=0 0 0 0:     0.000 sec done=        45 (=100.0%) skipped=         0 
    -> L=1 0 0 0:     0.000 sec done=        72 (=100.0%) skipped=         0 
    -> L=1 0 1 0:     0.000 sec done=        36 (=100.0%) skipped=         0 
    -> L=1 1 0 0:     0.000 sec done=        27 (=100.0%) skipped=         0 
    -> L=1 1 1 0:     0.000 sec done=        24 (=100.0%) skipped=         0 
    -> L=1 1 1 1:     0.000 sec done=         6 (=100.0%) skipped=         0 
    -> RHF LowL loop time =     0.001 sec
    ->Total SHARK integral loop time =    0.000 sec
    ->Total LIBINT loop time =    0.000 sec

                         ----------------------------
                         !        ITERATION     5   !
                         ----------------------------
   Total Energy        :    -106.824178649726 Eh
   Energy Change       :       0.000948939139 Eh
   MAX-DP              :       0.000028061620
   RMS-DP              :       0.000005991084
   Orbital gradient    :       0.000026033535
   Orbital Rotation    :       0.000025298769
   Actual Damping      :       0.0000

===> SHARK/Fock/General/Sym: HFTyp=1 DoJ=1 DoX=1 facj= 2.000 facx=-0.500 NFock=1 NumOp=1 NMat=1 RangeSep=0 GeneralContraction=0 PGCOpt=-1
    -> L=0 0 0 0:     0.000 sec done=        42 (= 93.3%) skipped=         3 
    -> L=1 0 0 0:     0.000 sec done=        72 (=100.0%) skipped=         0 
    -> L=1 0 1 0:     0.000 sec done=        36 (=100.0%) skipped=         0 
    -> L=1 1 0 0:     0.000 sec done=        27 (=100.0%) skipped=         0 
    -> L=1 1 1 0:     0.000 sec done=        24 (=100.0%) skipped=         0 
    -> L=1 1 1 1:     0.000 sec done=         6 (=100.0%) skipped=         0 
    -> RHF LowL loop time =     0.001 sec
    ->Total SHARK integral loop time =    0.000 sec
    ->Total LIBINT loop time =    0.000 sec
                 **** Energy Check signals convergence ****
              ***Rediagonalizing the Fockian in SOSCF/NRSCF***

               *****************************************************
               *                     SUCCESS                       *
               *           SCF CONVERGED AFTER   6 CYCLES          *
               *****************************************************


----------------
TOTAL SCF ENERGY
----------------

Total Energy       :         -106.82417865 Eh           -2906.83368 eV

Components:
Nuclear Repulsion  :           12.50225806 Eh             340.20374 eV
Electronic Energy  :         -119.32643671 Eh           -3247.03742 eV
One Electron Energy:         -172.08842802 Eh           -4682.76419 eV
Two Electron Energy:           52.76199131 Eh            1435.72677 eV

Virial components:
Potential Energy   :         -213.50327702 Eh           -5809.71953 eV
Kinetic Energy     :          106.67909837 Eh            2902.88585 eV
Virial Ratio       :            2.00135997


---------------
SCF CONVERGENCE
---------------

  Last Energy change         ...   -1.7952e-09  Tolerance :   1.0000e-06
  Last MAX-Density change    ...    9.2538e-06  Tolerance :   1.0000e-05
  Last RMS-Density change    ...    1.9730e-06  Tolerance :   1.0000e-06
  Last Orbital Gradient      ...    6.4581e-06  Tolerance :   5.0000e-05
  Last Orbital Rotation      ...    8.3417e-06  Tolerance :   5.0000e-05

             **** THE GBW FILE WAS UPDATED (n2.gbw) ****
             **** DENSITY n2.scfp WAS UPDATED ****
             **** ENERGY FILE WAS UPDATED (n2.en.tmp) ****
             **** THE GBW FILE WAS UPDATED (n2.gbw) ****
             **** DENSITY n2.scfp WAS UPDATED ****
----------------
ORBITAL ENERGIES
----------------

  NO   OCC          E(Eh)            E(eV) 
   0   2.0000     -15.369761      -418.2325 
   1   2.0000     -15.369545      -418.2266 
   2   2.0000      -0.956311       -26.0226 
   3   2.0000      -0.832441       -22.6519 
   4   2.0000      -0.301128        -8.1941 
   5   2.0000      -0.226515        -6.1638 
   6   2.0000      -0.226515        -6.1638 
   7   0.0000       0.069291         1.8855 
   8   0.0000       0.069291         1.8855 
   9   0.0000       0.196588         5.3494 
------------------
MOLECULAR ORBITALS
------------------
                      0         1         2         3         4         5   
                 -15.36976 -15.36954  -0.95631  -0.83244  -0.30113  -0.22652
                   2.00000   2.00000   2.00000   2.00000   2.00000   2.00000
                  --------  --------  --------  --------  --------  --------
  0N   1s         0.703352 -0.703660 -0.178729 -0.187746  0.028694  0.000000
  0N   2s         0.015520 -0.013953  0.693498  0.743909 -0.127899 -0.000000
  0N   1pz        0.001481  0.000360  0.058981 -0.072031  0.664541 -0.000000
  0N   1px        0.000000 -0.000000  0.000000  0.000000  0.000000  0.669521
  0N   1py        0.000000  0.000000  0.000000 -0.000000  0.000000 -0.192974
  1N   1s        -0.703353 -0.703659 -0.178729  0.187746  0.028694 -0.000000
  1N   2s        -0.015520 -0.013953  0.693498 -0.743909 -0.127899  0.000000
  1N   1pz        0.001481 -0.000360 -0.058981 -0.072031 -0.664541  0.000000
  1N   1px       -0.000000  0.000000  0.000000 -0.000000  0.000000  0.669521
  1N   1py       -0.000000  0.000000 -0.000000  0.000000 -0.000000 -0.192974
                      6         7         8         9   
                  -0.22652   0.06929   0.06929   0.19659
                   2.00000   0.00000   0.00000   0.00000
                  --------  --------  --------  --------
  0N   1s         0.000000  0.000000 -0.000000  0.035883
  0N   2s        -0.000000 -0.000000  0.000000 -0.158500
  0N   1pz        0.000000  0.000000 -0.000000 -0.761268
  0N   1px       -0.192974  0.712796  0.085543 -0.000000
  0N   1py       -0.669521 -0.085543  0.712796  0.000000
  1N   1s         0.000000  0.000000 -0.000000 -0.035883
  1N   2s        -0.000000 -0.000000  0.000000  0.158500
  1N   1pz       -0.000000 -0.000000  0.000000 -0.761268
  1N   1px       -0.192974 -0.712796 -0.085543 -0.000000
  1N   1py       -0.669521  0.085543 -0.712796  0.000000


-------
DENSITY
-------
                  0          1          2          3          4          5    
      0       2.115716  -0.493098   0.045678   0.000000   0.000000  -0.004100
      1      -0.493098   2.102266  -0.195315   0.000000  -0.000000   0.021901
      2       0.045678  -0.195315   0.900568  -0.000000   0.000000  -0.012584
      3       0.000000   0.000000  -0.000000   0.970994  -0.000000   0.000000
      4       0.000000  -0.000000   0.000000  -0.000000   0.970994  -0.000000
      5      -0.004100   0.021901  -0.012584   0.000000  -0.000000   2.115716
      6       0.021901  -0.112299   0.018932  -0.000000  -0.000000  -0.493098
      7       0.012584  -0.018932  -0.879805  -0.000000  -0.000000  -0.045678
      8      -0.000000  -0.000000   0.000000   0.970994  -0.000000  -0.000000
      9      -0.000000   0.000000  -0.000000   0.000000   0.970994   0.000000
                  6          7          8          9    
      0       0.021901   0.012584  -0.000000  -0.000000
      1      -0.112299  -0.018932  -0.000000   0.000000
      2       0.018932  -0.879805   0.000000  -0.000000
      3      -0.000000  -0.000000   0.970994   0.000000
      4      -0.000000  -0.000000  -0.000000   0.970994
      5      -0.493098  -0.045678  -0.000000   0.000000
      6       2.102266   0.195315   0.000000   0.000000
      7       0.195315   0.900568  -0.000000   0.000000
      8       0.000000  -0.000000   0.970994   0.000000
      9       0.000000   0.000000   0.000000   0.970994



                    ********************************
                    * MULLIKEN POPULATION ANALYSIS *
                    ********************************

-----------------------
MULLIKEN ATOMIC CHARGES
-----------------------
   0 N :   -0.000000
   1 N :    0.000000
Sum of atomic charges:   -0.0000000

------------------------
MULLIKEN ORBITAL CHARGES
------------------------
The uncorrected charge=density diagonal is given in parenthesis)
   0:   0N   1s           1.999805 (  2.115716)
   1:   0N   2s           1.980455 (  2.102266)
   2:   0N   1pz          1.019740 (  0.900568)
   3:   0N   1px          1.000000 (  0.970994)
   4:   0N   1py          1.000000 (  0.970994)
   5:   1N   1s           1.999805 (  2.115716)
   6:   1N   2s           1.980455 (  2.102266)
   7:   1N   1pz          1.019740 (  0.900568)
   8:   1N   1px          1.000000 (  0.970994)
   9:   1N   1py          1.000000 (  0.970994)
Sum of orbital charges :   14.0000000

--------------------------------
MULLIKEN REDUCED ORBITAL CHARGES
--------------------------------
  0 N s       :     3.980260  s :     3.980260
      pz      :     1.019740  p :     3.019740
      px      :     1.000000
      py      :     1.000000
  1 N s       :     3.980260  s :     3.980260
      pz      :     1.019740  p :     3.019740
      px      :     1.000000
      py      :     1.000000

------------------------
MULLIKEN OVERLAP CHARGES
------------------------
B(  0-N ,  1-N ) :   0.3425 

-----------------------------------
MULLIKEN ORBITAL POPULATIONS PER MO
-----------------------------------
THRESHOLD FOR PRINTING IS 0.1%
                      0         1         2         3         4         5   
                 -15.36976 -15.36954  -0.95631  -0.83244  -0.30113  -0.22652
                   2.00000   2.00000   2.00000   2.00000   2.00000   2.00000
                  --------  --------  --------  --------  --------  --------
  0N   1s             49.7      49.7       0.2       0.3       0.0      -0.0
  0N   2s              0.3       0.3      48.9      48.7       0.8       0.0
  0N   1pz            -0.0      -0.0       0.8       1.0      49.2       0.0
  0N   1px             0.0       0.0       0.0       0.0       0.0      46.2
  0N   1py             0.0       0.0       0.0       0.0       0.0       3.8
  1N   1s             49.7      49.7       0.2       0.3       0.0       0.0
  1N   2s              0.3       0.3      48.9      48.7       0.8      -0.0
  1N   1pz            -0.0      -0.0       0.8       1.0      49.2       0.0
  1N   1px             0.0       0.0       0.0       0.0       0.0      46.2
  1N   1py             0.0       0.0       0.0       0.0       0.0       3.8

                      6         7         8         9   
                  -0.22652   0.06929   0.06929   0.19659
                   2.00000   0.00000   0.00000   0.00000
                  --------  --------  --------  --------
  0N   2s              0.0       0.0      -0.0       1.0
  0N   1pz             0.0       0.0       0.0      49.0
  0N   1px             3.8      49.3       0.7       0.0
  0N   1py            46.2       0.7      49.3       0.0
  1N   2s              0.0      -0.0       0.0       1.0
  1N   1pz             0.0       0.0       0.0      49.0
  1N   1px             3.8      49.3       0.7       0.0
  1N   1py            46.2       0.7      49.3       0.0


                     *******************************
                     * LOEWDIN POPULATION ANALYSIS *
                     *******************************

----------------------
LOEWDIN ATOMIC CHARGES
----------------------
   0 N :   -0.000000
   1 N :    0.000000

-----------------------
LOEWDIN ORBITAL CHARGES
-----------------------
   0:   0N   1s           1.999484
   1:   0N   2s           1.977512
   2:   0N   1pz          1.023005
   3:   0N   1px          1.000000
   4:   0N   1py          1.000000
   5:   1N   1s           1.999484
   6:   1N   2s           1.977512
   7:   1N   1pz          1.023005
   8:   1N   1px          1.000000
   9:   1N   1py          1.000000

-------------------------------
LOEWDIN REDUCED ORBITAL CHARGES
-------------------------------
  0 N s       :     3.976995  s :     3.976995
      pz      :     1.023005  p :     3.023005
      px      :     1.000000
      py      :     1.000000
  1 N s       :     3.976995  s :     3.976995
      pz      :     1.023005  p :     3.023005
      px      :     1.000000
      py      :     1.000000

---------------------------------
LOEWDIN BOND ORDERS (THRESH 0.050000)
---------------------------------
B(  0-N ,  1-N ) :   3.0000 

----------------------------------
LOEWDIN ORBITAL POPULATIONS PER MO
----------------------------------
THRESHOLD FOR PRINTING IS 0.1%
                      0         1         2         3         4         5   
                 -15.36976 -15.36954  -0.95631  -0.83244  -0.30113  -0.22652
                   2.00000   2.00000   2.00000   2.00000   2.00000   2.00000
                  --------  --------  --------  --------  --------  --------
  0N   1s             49.0      49.1       0.9       1.0       0.0       0.0
  0N   2s              1.0       0.9      48.1      47.9       0.9       0.0
  0N   1pz             0.0       0.0       0.9       1.2      49.1       0.0
  0N   1px             0.0       0.0       0.0       0.0       0.0      46.2
  0N   1py             0.0       0.0       0.0       0.0       0.0       3.8
  1N   1s             49.0      49.1       0.9       1.0       0.0       0.0
  1N   2s              1.0       0.9      48.1      47.9       0.9       0.0
  1N   1pz             0.0       0.0       0.9       1.2      49.1       0.0
  1N   1px             0.0       0.0       0.0       0.0       0.0      46.2
  1N   1py             0.0       0.0       0.0       0.0       0.0       3.8

                      6         7         8         9   
                  -0.22652   0.06929   0.06929   0.19659
                   2.00000   0.00000   0.00000   0.00000
                  --------  --------  --------  --------
  0N   2s              0.0       0.0       0.0       1.1
  0N   1pz             0.0       0.0       0.0      48.8
  0N   1px             3.8      49.3       0.7       0.0
  0N   1py            46.2       0.7      49.3       0.0
  1N   2s              0.0       0.0       0.0       1.1
  1N   1pz             0.0       0.0       0.0      48.8
  1N   1px             3.8      49.3       0.7       0.0
  1N   1py            46.2       0.7      49.3       0.0

------------------------------------------
LOEWDIN REDUCED ORBITAL POPULATIONS PER MO
-------------------------------------------
THRESHOLD FOR PRINTING IS 0.1%
                      0         1         2         3         4         5   
                 -15.36976 -15.36954  -0.95631  -0.83244  -0.30113  -0.22652
                   2.00000   2.00000   2.00000   2.00000   2.00000   2.00000
                  --------  --------  --------  --------  --------  --------
 0 N  s              50.0      50.0      49.1      48.8       0.9       0.0
 0 N  pz              0.0       0.0       0.9       1.2      49.1       0.0
 0 N  px              0.0       0.0       0.0       0.0       0.0      46.2
 0 N  py              0.0       0.0       0.0       0.0       0.0       3.8
 1 N  s              50.0      50.0      49.1      48.8       0.9       0.0
 1 N  pz              0.0       0.0       0.9       1.2      49.1       0.0
 1 N  px              0.0       0.0       0.0       0.0       0.0      46.2
 1 N  py              0.0       0.0       0.0       0.0       0.0       3.8

                      6         7         8         9   
                  -0.22652   0.06929   0.06929   0.19659
                   2.00000   0.00000   0.00000   0.00000
                  --------  --------  --------  --------
 0 N  s               0.0       0.0       0.0       1.2
 0 N  pz              0.0       0.0       0.0      48.8
 0 N  px              3.8      49.3       0.7       0.0
 0 N  py             46.2       0.7      49.3       0.0
 1 N  s               0.0       0.0       0.0       1.2
 1 N  pz              0.0       0.0       0.0      48.8
 1 N  px              3.8      49.3       0.7       0.0
 1 N  py             46.2       0.7      49.3       0.0


                      *****************************
                      * MAYER POPULATION ANALYSIS *
                      *****************************

  NA   - Mulliken gross atomic population
  ZA   - Total nuclear charge
  QA   - Mulliken gross atomic charge
  VA   - Mayer's total valence
  BVA  - Mayer's bonded valence
  FA   - Mayer's free valence

  ATOM       NA         ZA         QA         VA         BVA        FA
  0 N      7.0000     7.0000    -0.0000     3.0000     3.0000     0.0000
  1 N      7.0000     7.0000     0.0000     3.0000     3.0000     0.0000

  Mayer bond orders larger than 0.100000
B(  0-N ,  1-N ) :   3.0000 

-------
TIMINGS
-------

Total SCF time: 0 days 0 hours 0 min 0 sec 

Total time                  ....       0.070 sec
Sum of individual times     ....       0.020 sec  ( 27.7%)

Fock matrix formation       ....       0.008 sec  ( 11.3%)
Diagonalization             ....       0.000 sec  (  0.2%)
Density matrix formation    ....       0.000 sec  (  0.0%)
Population analysis         ....       0.001 sec  (  1.8%)
Initial guess               ....       0.002 sec  (  3.3%)
Orbital Transformation      ....       0.000 sec  (  0.0%)
Orbital Orthonormalization  ....       0.000 sec  (  0.0%)
DIIS solution               ....       0.000 sec  (  0.2%)
SOSCF solution              ....       0.000 sec  (  0.1%)

Maximum memory used throughout the entire SCF-calculation: 223.7 MB

-------------------------   --------------------
FINAL SINGLE POINT ENERGY      -106.824178651521
-------------------------   --------------------


                            ***************************************
                            *     ORCA property calculations      *
                            ***************************************

                                    ---------------------
                                    Active property flags
                                    ---------------------
   (+) Dipole Moment


------------------------------------------------------------------------------
                       ORCA ELECTRIC PROPERTIES CALCULATION
------------------------------------------------------------------------------

Dipole Moment Calculation                       ... on
Quadrupole Moment Calculation                   ... off
Polarizability Calculation                      ... off
GBWName                                         ... n2.gbw
Electron density                                ... n2.scfp
SHARK General Contraction Test:  Segmented basis detected
   -> Pre-screening matrix found on disk - Trying to read with NShells=6
   -> Passing Pre-screening matrix on to SHARK ...ok
   -> Leaving CheckPreScreeningMatrix
----------------------
SHARK INTEGRAL PACKAGE
----------------------

Number of atoms                             ...      2
Number of basis functions                   ...     10
Number of shells                            ...      6
Maximum angular momentum                    ...      1
Integral batch strategy                     ... SHARK/LIBINT Hybrid
RI-J (if used) integral strategy            ... SPLIT-RIJ (Revised 2003 algorithm where possible)
Printlevel                                  ...      2
Contraction scheme used                     ... SEGMENTED contraction
Coulomb Range Separation                    ... NOT USED
Exchange Range Separation                   ... NOT USED
Finite Nucleus Model                        ... NOT USED
Auxiliary Coulomb fitting basis             ... NOT available
Auxiliary J/K fitting basis                 ... NOT available
Auxiliary Correlation fitting basis         ... NOT available
Auxiliary 'external' fitting basis          ... NOT available
Integral threshold                          ...     1.000000e-10
Primitive cut-off                           ...     1.000000e-11
Primitive pair pre-selection threshold      ...     1.000000e-11

The origin for moment calculation is the CENTER OF MASS  = ( 0.000000,  0.000000  1.959646)

-------------
DIPOLE MOMENT
-------------
                                X             Y             Z
Electronic contribution:     -0.00000      -0.00000       0.00000
Nuclear contribution   :      0.00000       0.00000      -0.00000
                        -----------------------------------------
Total Dipole Moment    :     -0.00000      -0.00000       0.00000
                        -----------------------------------------
Magnitude (a.u.)       :      0.00000
Magnitude (Debye)      :      0.00000



--------------------
Rotational spectrum 
--------------------
 
Rotational constants in cm-1:     0.000000     0.559583     0.559583 
Rotational constants in MHz :     0.000000 16775.866710 16775.866710 

 Dipole components along the rotational axes: 
x,y,z [a.u.] :     0.000000    -0.000000    -0.000000 
x,y,z [Debye]:     0.000000    -0.000000    -0.000000 

 

Timings for individual modules:

Sum of individual times         ...        0.116 sec (=   0.002 min)
GTO integral calculation        ...        0.035 sec (=   0.001 min)  30.1 %
SCF iterations                  ...        0.081 sec (=   0.001 min)  69.9 %
                             ****ORCA TERMINATED NORMALLY****
TOTAL RUN TIME: 0 days 0 hours 0 minutes 0 seconds 147 msec
